3
 Atoms. Timestep: 10
Li 0.383134 0.383134 0.383134
Li 2 2 2
Li 3.61687 3.61687 3.61687
3
 Atoms. Timestep: 20
Li 0.386808 0.435498 0.40365
Li 1.9893 1.892 1.95564
Li 3.62389 3.6725 3.64071
3
 Atoms. Timestep: 30
Li 0.380681 0.479158 0.414745
Li 1.99129 1.79588 1.9237
Li 3.62802 3.72496 3.66155
3
 Atoms. Timestep: 40
Li 0.351727 0.504335 0.404515
Li 2.01972 1.72246 1.9169
Li 3.62855 3.7732 3.67859
3
 Atoms. Timestep: 50
Li 0.297339 0.510862 0.371197
Li 2.07709 1.67214 1.93702
Li 3.62557 3.817 3.69179
3
 Atoms. Timestep: 60
Li 0.2292 0.508274 0.325732
Li 2.15152 1.63547 1.97302
Li 3.61928 3.85625 3.70125
3
 Atoms. Timestep: 70
Li 0.15882 0.504326 0.278331
Li 2.23133 1.60486 2.01463
Li 3.60985 3.89082 3.70704
3
 Atoms. Timestep: 80
Li 0.0916053 0.502077 0.233588
Li 2.31094 1.5774 2.05721
Li 3.59746 3.92052 3.70921
3
 Atoms. Timestep: 90
Li 0.0291331 0.502166 0.192756
Li 2.3886 1.55264 2.09944
Li 3.58226 3.9452 3.7078
3
 Atoms. Timestep: 100
Li -0.0285782 0.50442 0.155787
Li 2.46413 1.53089 2.14132
Li 3.56444 3.96469 3.70289
3
 Atoms. Timestep: 110
Li -0.0820214 0.508477 0.122233
Li 2.53783 1.51263 2.18321
Li 3.54419 3.97889 3.69455
3
 Atoms. Timestep: 120
Li -0.131802 0.513982 0.0915764
Li 2.6101 1.49829 2.22552
Li 3.5217 3.98773 3.6829
3
 Atoms. Timestep: 130
Li -0.178496 0.520638 0.0633364
Li 2.68127 1.48809 2.26854
Li 3.49723 3.99127 3.66812
3
 Atoms. Timestep: 140
Li -0.22261 0.52821 0.0371007
Li 2.75154 1.48198 2.3124
Li 3.47107 3.98981 3.6505
2
 Atoms. Timestep: 150
Li 2.82123 1.47957 2.35715
Li 3.44362 3.98401 3.63054
2
 Atoms. Timestep: 160
Li 2.89148 1.48006 2.40327
Li 3.41542 3.97524 3.60907
2
 Atoms. Timestep: 170
Li 2.96188 1.4812 2.44971
Li 3.38707 3.96582 3.58726
2
 Atoms. Timestep: 180
Li 3.03184 1.47958 2.49491
Li 3.35916 3.95917 3.5667
2
 Atoms. Timestep: 190
Li 3.10093 1.47123 2.53721
Li 3.33212 3.95924 3.54904
