8
 Atoms. Timestep: 0
Li -1.737410 -2.587149 2.025962
Li -3.381819 -0.897256 0.366490
Li -0.023036 -0.894680 0.460000
Li 1.790706 0.920497 -1.333395
Li 3.410680 2.564698 0.409748
Li -0.064505 2.570643 0.377119
Li 0.013692 2.584520 -3.043753
Li -2.025024 1.978602 -0.873556
8
 Atoms. Timestep: 10
Li -1.750302 -2.599970 2.141340
Li -3.405539 -0.719261 0.402914
Li -0.006206 -0.927699 0.404316
Li 1.658553 0.860466 -1.250397
Li 3.404605 2.555776 0.392150
Li 0.062597 2.549083 0.508036
Li 0.005221 2.588807 -2.928239
Li -1.928161 1.979064 -0.851273
8
 Atoms. Timestep: 20
Li -1.685073 -2.582165 2.164184
Li -3.444635 -0.849162 0.476974
Li 0.036893 -0.763469 0.399155
Li 1.636815 0.817335 -1.311331
Li 3.443988 2.519364 0.387362
Li 0.024565 2.653031 0.269296
Li 0.065196 2.544424 -3.116033
Li -2.031590 1.893657 -0.783602
8
 Atoms. Timestep: 30
Li -1.737408 -2.432407 2.183343
Li -3.358965 -0.875406 0.447471
Li 0.096864 -0.983228 0.256518
Li 1.704425 0.845163 -1.383543
Li 3.391691 2.589984 0.373692
Li -0.013857 2.560259 0.282003
Li 0.004677 2.568879 -3.006947
Li -1.949987 1.930662 -0.868432
8
 Atoms. Timestep: 40
Li -1.843617 -2.595970 2.151624
Li -3.364510 -0.780563 0.479914
Li -0.060202 -0.780463 0.453877
Li 1.711582 0.841113 -1.356148
Li 3.438514 2.616665 0.494969
Li -0.088549 2.595314 0.364596
Li -0.000793 2.544972 -3.020747
Li -1.897278 1.969855 -0.805186
8
 Atoms. Timestep: 50
Li -1.748554 -2.556859 2.109977
Li -3.468805 -0.838852 0.433051
Li -0.038275 -0.867510 0.342373
Li 1.777959 0.919347 -1.256109
Li 3.435862 2.500532 0.329721
Li -0.066395 2.494139 0.388951
Li 0.027195 2.447722 -2.984187
Li -1.908136 1.977472 -0.858539
8
 Atoms. Timestep: 60
Li -1.716431 -2.595752 2.122586
Li -3.493142 -0.965603 0.461766
Li -0.015356 -0.855180 0.402169
Li 1.607908 0.906752 -1.249347
Li 3.380465 2.499426 0.384623
Li -0.045458 2.581143 0.454434
Li 0.053474 2.563151 -2.898954
Li -1.957958 2.015652 -0.860210
8
 Atoms. Timestep: 70
Li -1.780728 -2.490853 2.080219
Li -3.363470 -0.905384 0.442674
Li 0.055617 -0.737234 0.397752
Li 1.788714 0.844541 -1.130385
Li 3.549630 2.559583 0.362582
Li -0.011473 2.617163 0.451193
Li 0.004450 2.650676 -2.893660
Li -1.958049 1.852929 -0.784554
8
 Atoms. Timestep: 80
Li -1.658202 -2.553320 2.144610
Li -3.327115 -0.834928 0.451232
Li -0.020184 -0.790360 0.363079
Li 1.772294 0.873037 -1.278371
Li 3.425180 2.460094 0.376806
Li 0.026455 2.667155 0.378905
Li 0.001703 2.527470 -2.999391
Li -1.958798 1.937062 -0.879437
8
 Atoms. Timestep: 90
Li -1.641745 -2.532994 2.087409
Li -3.410354 -0.751864 0.449016
Li 0.029138 -0.731466 0.464251
Li 1.785908 0.978655 -1.237877
Li 3.348602 2.554218 0.482404
Li 0.003036 2.556390 0.518961
Li 0.025193 2.477782 -2.932552
Li -1.996793 1.922605 -0.799358
8
 Atoms. Timestep: 100
Li -1.662840 -2.552259 2.064514
Li -3.301210 -0.898165 0.413911
Li 0.068391 -0.885151 0.440837
Li 1.689235 0.877008 -1.220141
Li 3.491468 2.535601 0.386072
Li 0.048557 2.597787 0.525371
Li -0.031085 2.530430 -2.916692
Li -1.950830 1.803309 -0.837127
8
 Atoms. Timestep: 110
Li -1.690221 -2.522695 2.126177
Li -3.374018 -0.833212 0.404067
Li 0.057729 -0.769024 0.363893
Li 1.633538 0.904348 -1.309370
Li 3.389765 2.512510 0.366123
Li -0.012826 2.503756 0.398297
Li 0.051642 2.456682 -2.991459
Li -1.967219 1.987326 -0.776440
8
 Atoms. Timestep: 120
Li -1.754969 -2.537646 2.159175
Li -3.290686 -0.834778 0.312110
Li 0.003809 -0.747353 0.393025
Li 1.691076 0.914835 -1.190828
Li 3.336147 2.529233 0.306986
Li 0.029420 2.503504 0.388904
Li 0.025876 2.396131 -2.932060
Li -1.856368 1.931497 -0.832071
8
 Atoms. Timestep: 130
Li -1.668947 -2.540962 2.043424
Li -3.302462 -0.856077 0.365415
Li 0.010165 -0.829378 0.447372
Li 1.612155 0.894711 -1.292228
Li 3.348222 2.436385 0.389194
Li 0.008395 2.536367 0.551079
Li 0.053522 2.476568 -2.981275
Li -1.866931 1.986754 -0.895946
8
 Atoms. Timestep: 140
Li -1.839693 -2.490439 1.997532
Li -3.320615 -0.846872 0.481398
Li 0.091105 -0.706953 0.403720
Li 1.732400 0.896495 -1.196026
Li 3.360954 2.600202 0.302435
Li 0.010986 2.529898 0.479900
Li 0.025404 2.543173 -2.840887
Li -1.899629 1.952300 -0.752015
8
 Atoms. Timestep: 150
Li -1.724377 -2.502216 1.924151
Li -3.405914 -0.925238 0.402006
Li 0.133632 -0.730666 0.377015
Li 1.682993 0.867933 -1.273683
Li 3.415926 2.498351 0.355608
Li -0.011474 2.522412 0.570125
Li -0.032378 2.369748 -2.872862
Li -1.935725 1.903326 -0.810864
8
 Atoms. Timestep: 160
Li -1.688138 -2.541492 2.041979
Li -3.294381 -0.819243 0.366709
Li 0.151745 -0.755877 0.417624
Li 1.776801 0.904214 -1.265564
Li 3.369625 2.561344 0.349892
Li 0.018927 2.472829 0.369625
Li 0.036531 2.453209 -2.841868
Li -1.839933 1.889035 -0.819838
8
 Atoms. Timestep: 170
Li -1.751017 -2.495629 1.942064
Li -3.288572 -0.825746 0.361393
Li 0.142663 -0.716421 0.374657
Li 1.679916 0.967287 -1.249324
Li 3.325969 2.477626 0.264731
Li -0.022284 2.520345 0.487990
Li 0.094868 2.425596 -2.862232
Li -1.953726 1.893260 -0.820959
8
 Atoms. Timestep: 180
Li -1.704492 -2.447358 1.849220
Li -3.208018 -0.787865 0.366617
Li 0.133537 -0.767648 0.393885
Li 1.617970 0.862923 -1.246482
Li 3.333795 2.624888 0.264356
Li 0.116488 2.523944 0.479111
Li 0.085398 2.414832 -2.797510
Li -1.971844 1.853113 -0.791008
8
 Atoms. Timestep: 190
Li -1.741772 -2.418259 1.952093
Li -3.237943 -0.838048 0.504574
Li 0.122665 -0.791067 0.327939
Li 1.588846 0.922693 -1.271343
Li 3.298591 2.527737 0.234121
Li 0.080296 2.436591 0.507026
Li 0.062588 2.337183 -2.783061
Li -2.005208 1.826270 -0.748804
8
 Atoms. Timestep: 200
Li -1.697865 -2.463306 1.946010
Li -3.232381 -0.728012 0.338032
Li 0.111231 -0.710373 0.314701
Li 1.639911 1.026294 -1.169731
Li 3.342627 2.483533 0.312480
Li 0.109610 2.521770 0.478968
Li 0.038061 2.370777 -2.828994
Li -1.980774 1.896165 -0.770266
8
 Atoms. Timestep: 210
Li -1.656475 -2.478049 2.027025
Li -3.118871 -0.835570 0.335251
Li 0.139759 -0.795941 0.411313
Li 1.534124 0.919699 -1.259864
Li 3.292754 2.520873 0.209090
Li 0.065787 2.515853 0.515947
Li 0.063167 2.404088 -2.840009
Li -1.921932 1.959524 -0.765414
8
 Atoms. Timestep: 220
Li -1.696823 -2.333648 1.844156
Li -3.214751 -0.812306 0.425639
Li 0.229486 -0.547243 0.388423
Li 1.675475 0.921633 -1.205935
Li 3.281899 2.497604 0.150403
Li -0.079675 2.517157 0.626932
Li 0.103240 2.243537 -2.744824
Li -1.919997 1.906006 -0.745651
8
 Atoms. Timestep: 230
Li -1.776285 -2.267704 1.921186
Li -3.173283 -0.794822 0.358717
Li 0.195606 -0.762746 0.350368
Li 1.602232 1.017949 -1.173423
Li 3.244389 2.437085 0.243787
Li 0.067972 2.467091 0.494742
Li -0.028042 2.266087 -2.618045
Li -1.969233 1.808514 -0.716887
8
 Atoms. Timestep: 240
Li -1.733363 -2.388188 1.830864
Li -3.168007 -0.874036 0.353056
Li 0.218117 -0.666562 0.315171
Li 1.671223 0.938521 -1.244375
Li 3.228907 2.420166 0.252655
Li 0.059413 2.433946 0.513496
Li 0.000300 2.344962 -2.705471
Li -1.911613 1.838595 -0.713428
8
 Atoms. Timestep: 250
Li -1.703289 -2.358894 1.855733
Li -3.101820 -0.824766 0.388095
Li 0.209364 -0.738427 0.386171
Li 1.644581 0.993289 -1.273541
Li 3.247248 2.492251 0.146347
Li 0.048505 2.492225 0.499247
Li 0.046106 2.305391 -2.668251
Li -1.962758 1.970473 -0.798801
8
 Atoms. Timestep: 260
Li -1.818883 -2.251053 1.798598
Li -3.037619 -0.766733 0.306913
Li 0.213072 -0.624272 0.327876
Li 1.572797 0.906613 -1.290812
Li 3.211142 2.457963 0.117885
Li 0.146790 2.415054 0.531564
Li 0.108021 2.267218 -2.708250
Li -1.882802 1.763280 -0.755567
8
 Atoms. Timestep: 270
Li -1.731488 -2.246704 1.812261
Li -3.116034 -0.766440 0.277938
Li 0.247276 -0.627043 0.300431
Li 1.597970 1.028525 -1.236447
Li 3.241890 2.459996 0.146629
Li 0.052304 2.520549 0.495039
Li 0.039958 2.186399 -2.613020
Li -1.993884 1.866726 -0.705160
8
 Atoms. Timestep: 280
Li -1.752008 -2.341010 1.784975
Li -2.993845 -0.842853 0.361427
Li 0.209559 -0.567621 0.319410
Li 1.527688 0.937397 -1.206669
Li 3.135001 2.421929 0.095801
Li 0.101914 2.276408 0.572558
Li 0.004260 2.155645 -2.585832
Li -2.017594 1.732121 -0.741526
8
 Atoms. Timestep: 290
Li -1.774610 -2.279554 1.786769
Li -2.984954 -0.776475 0.350697
Li 0.247441 -0.671534 0.209713
Li 1.558316 1.070581 -1.241892
Li 3.166039 2.425713 0.113786
Li 0.125795 2.394953 0.564286
Li 0.049395 2.148452 -2.689260
Li -1.920780 1.724168 -0.659755
8
 Atoms. Timestep: 300
Li -1.630818 -2.199265 1.654827
Li -3.053352 -0.839131 0.235740
Li 0.387241 -0.580457 0.318952
Li 1.536822 1.008785 -1.158787
Li 3.007147 2.502224 0.090050
Li 0.075477 2.372186 0.594368
Li 0.059114 2.055417 -2.603783
Li -1.865126 1.772403 -0.666681
8
 Atoms. Timestep: 310
Li -1.754164 -2.154938 1.651068
Li -2.938557 -0.766129 0.334344
Li 0.343694 -0.490439 0.291771
Li 1.474053 1.059765 -1.257069
Li 3.168785 2.404160 -0.027720
Li 0.204482 2.361552 0.513564
Li 0.081249 2.084688 -2.505472
Li -1.863252 1.689222 -0.713016
8
 Atoms. Timestep: 320
Li -1.844915 -2.120426 1.702240
Li -3.069823 -0.721360 0.337559
Li 0.295444 -0.562134 0.303033
Li 1.427979 1.028495 -1.133598
Li 3.059252 2.386754 0.009793
Li 0.214930 2.465405 0.569004
Li 0.060399 2.111542 -2.479017
Li -1.837040 1.767968 -0.650476
8
 Atoms. Timestep: 330
Li -1.784108 -2.191373 1.591481
Li -2.879559 -0.709229 0.277574
Li 0.324509 -0.579426 0.331364
Li 1.469338 1.144801 -1.129148
Li 3.138110 2.352650 -0.007343
Li 0.168145 2.333052 0.667974
Li -0.042287 1.984679 -2.495338
Li -1.964103 1.796965 -0.696194
8
 Atoms. Timestep: 340
Li -1.802687 -2.080248 1.551757
Li -3.028829 -0.612909 0.251055
Li 0.365458 -0.537237 0.197522
Li 1.547913 1.112732 -1.192982
Li 3.156259 2.490456 -0.100992
Li 0.185877 2.318891 0.634876
Li 0.041912 1.988223 -2.388800
Li -1.853025 1.784828 -0.597237
8
 Atoms. Timestep: 350
Li -1.747932 -2.167615 1.614103
Li -2.865450 -0.728123 0.262056
Li 0.417597 -0.583538 0.215050
Li 1.399839 1.132019 -1.074250
Li 3.185653 2.361037 -0.075463
Li 0.142383 2.368481 0.698907
Li 0.082311 1.930985 -2.364678
Li -2.002548 1.735562 -0.621231
8
 Atoms. Timestep: 360
Li -1.832170 -1.996698 1.461279
Li -2.771361 -0.672015 0.284982
Li 0.433484 -0.432835 0.260187
Li 1.503948 1.194900 -1.113820
Li 3.005473 2.357418 -0.095919
Li 0.320653 2.380411 0.658457
Li 0.046375 1.882238 -2.414784
Li -1.913821 1.648816 -0.652727
8
 Atoms. Timestep: 370
Li -1.776160 -2.101463 1.511797
Li -2.854721 -0.802216 0.259307
Li 0.429256 -0.450646 0.246151
Li 1.408988 1.174777 -1.146439
Li 3.013929 2.341262 -0.138403
Li 0.213892 2.236172 0.610048
Li 0.152691 1.837566 -2.360008
Li -1.843856 1.690458 -0.613933
8
 Atoms. Timestep: 380
Li -1.807906 -1.925487 1.467654
Li -2.803888 -0.752391 0.334565
Li 0.402731 -0.459981 0.166354
Li 1.456418 1.086899 -1.128066
Li 3.088719 2.343362 -0.185398
Li 0.303410 2.281142 0.660687
Li 0.085051 1.834969 -2.304129
Li -1.883555 1.639806 -0.622929
8
 Atoms. Timestep: 390
Li -1.703180 -2.091530 1.478671
Li -2.654499 -0.694736 0.258746
Li 0.478204 -0.363470 0.282468
Li 1.412731 1.182821 -1.069523
Li 3.047412 2.375532 -0.217552
Li 0.179949 2.268462 0.668092
Li 0.074826 1.813510 -2.282936
Li -1.939930 1.729539 -0.503022
8
 Atoms. Timestep: 400
Li -1.817832 -2.039225 1.524247
Li -2.769860 -0.721491 0.111989
Li 0.533577 -0.442252 0.203432
Li 1.429615 1.141323 -1.123251
Li 2.942695 2.334714 -0.263544
Li 0.189666 2.323074 0.598292
Li 0.032727 1.714270 -2.251109
Li -1.846395 1.615432 -0.516973
8
 Atoms. Timestep: 410
Li -1.761897 -1.974322 1.375051
Li -2.690592 -0.691090 0.239314
Li 0.565716 -0.459303 0.207761
Li 1.394176 1.184819 -1.149587
Li 2.957732 2.376969 -0.246408
Li 0.151149 2.308052 0.609707
Li 0.092564 1.642451 -2.221152
Li -1.872453 1.693156 -0.544725
8
 Atoms. Timestep: 420
Li -1.742014 -1.913727 1.383707
Li -2.719931 -0.701046 0.198856
Li 0.536532 -0.408333 0.233801
Li 1.301306 1.180016 -1.066893
Li 2.956759 2.323852 -0.297185
Li 0.220972 2.283771 0.625907
Li 0.025975 1.634719 -2.223413
Li -1.863918 1.677514 -0.438639
8
 Atoms. Timestep: 430
Li -1.632206 -1.982253 1.333509
Li -2.569654 -0.674953 0.153974
Li 0.549484 -0.337162 0.159373
Li 1.362080 1.203508 -1.133884
Li 2.896346 2.247568 -0.179159
Li 0.253756 2.205157 0.703342
Li 0.173565 1.601006 -2.071023
Li -1.949074 1.614370 -0.588434
8
 Atoms. Timestep: 440
Li -1.778793 -1.918657 1.275850
Li -2.718368 -0.622669 0.198293
Li 0.530267 -0.374398 0.162027
Li 1.284940 1.215598 -1.101397
Li 2.857098 2.271684 -0.324694
Li 0.190852 2.237557 0.644286
Li 0.098288 1.687596 -2.154455
Li -1.834896 1.571711 -0.494088
8
 Atoms. Timestep: 450
Li -1.787448 -1.849671 1.306643
Li -2.495911 -0.675142 0.172221
Li 0.642858 -0.390095 0.188663
Li 1.329646 1.188171 -1.069904
Li 2.972258 2.332986 -0.297514
Li 0.299548 2.273236 0.681161
Li 0.055807 1.540695 -2.021217
Li -1.834427 1.632507 -0.398527
8
 Atoms. Timestep: 460
Li -1.774141 -1.746123 1.214371
Li -2.500971 -0.706441 0.184194
Li 0.596934 -0.223709 0.080643
Li 1.335946 1.325524 -1.108027
Li 2.875488 2.345449 -0.354213
Li 0.292475 2.249867 0.675408
Li 0.252595 1.490953 -1.995447
Li -1.914575 1.655831 -0.446213
8
 Atoms. Timestep: 470
Li -1.767528 -1.773729 1.188081
Li -2.519332 -0.690170 0.137098
Li 0.670928 -0.330136 0.207760
Li 1.324760 1.377285 -1.078512
Li 2.789801 2.278646 -0.390986
Li 0.311988 2.237355 0.744281
Li 0.086590 1.496687 -1.986729
Li -1.883541 1.610494 -0.398867
8
 Atoms. Timestep: 480
Li -1.764245 -1.790294 1.163766
Li -2.418223 -0.683587 0.066732
Li 0.741169 -0.135739 0.158607
Li 1.263904 1.271177 -1.076268
Li 2.807756 2.261508 -0.436002
Li 0.311409 2.266263 0.733924
Li 0.111289 1.473776 -1.999937
Li -1.890737 1.627016 -0.337473
8
 Atoms. Timestep: 490
Li -1.818962 -1.684666 1.106691
Li -2.507892 -0.627048 0.100942
Li 0.718605 -0.242705 0.143094
Li 1.340773 1.254756 -1.084272
Li 2.747988 2.184078 -0.469727
Li 0.281075 2.247295 0.915791
Li 0.182749 1.364360 -1.925522
Li -1.861284 1.639465 -0.454233
8
 Atoms. Timestep: 500
Li -1.664676 -1.681493 1.067846
Li -2.439069 -0.550873 0.091188
Li 0.744675 -0.249437 0.109677
Li 1.154923 1.303953 -0.980625
Li 2.814636 2.327654 -0.555296
Li 0.347445 2.229597 0.756695
Li 0.155582 1.473893 -1.888784
Li -1.790611 1.560800 -0.321138
8
 Atoms. Timestep: 510
Li -1.808317 -1.663018 1.010323
Li -2.376295 -0.618071 0.182585
Li 0.776273 -0.220762 0.128819
Li 1.290975 1.477016 -1.065556
Li 2.788332 2.191258 -0.532686
Li 0.265467 2.085261 0.740387
Li 0.023031 1.383146 -1.927003
Li -1.785878 1.553412 -0.313782
8
 Atoms. Timestep: 520
Li -1.770413 -1.714318 1.078647
Li -2.287560 -0.597604 0.056869
Li 0.768161 -0.190741 0.142629
Li 1.270809 1.426071 -1.076518
Li 2.723095 2.201904 -0.619387
Li 0.354671 2.088102 0.820807
Li 0.174701 1.265503 -1.858426
Li -1.797426 1.532368 -0.370318
8
 Atoms. Timestep: 530
Li -1.801897 -1.590422 1.029375
Li -2.304595 -0.614188 0.137055
Li 0.803605 -0.108466 0.097221
Li 1.188232 1.387749 -1.044000
Li 2.703261 2.176444 -0.662046
Li 0.325935 2.147555 0.816647
Li 0.118627 1.208800 -1.778792
Li -1.846541 1.531440 -0.297030
8
 Atoms. Timestep: 540
Li -1.721333 -1.633130 0.922790
Li -2.218532 -0.611061 0.092414
Li 0.842334 -0.074971 0.083062
Li 1.159694 1.408039 -1.043725
Li 2.757634 2.144444 -0.599461
Li 0.315579 2.183587 0.830975
Li 0.142714 1.270493 -1.769645
Li -1.868730 1.513984 -0.348375
8
 Atoms. Timestep: 550
Li -1.712783 -1.530505 0.831885
Li -2.263925 -0.619872 0.142032
Li 0.849959 0.015947 0.009451
Li 1.168697 1.538989 -0.965038
Li 2.631273 2.217435 -0.735440
Li 0.369334 2.062555 0.897287
Li 0.189111 1.187354 -1.699366
Li -1.924124 1.510450 -0.362066
8
 Atoms. Timestep: 560
Li -1.715740 -1.486236 0.870631
Li -2.201334 -0.570909 0.007498
Li 0.946002 -0.071402 0.109908
Li 1.127995 1.427687 -0.948266
Li 2.620441 2.124868 -0.707314
Li 0.446548 2.159921 0.839686
Li 0.144365 1.220159 -1.666825
Li -1.814137 1.532148 -0.313386
8
 Atoms. Timestep: 570
Li -1.791698 -1.370356 0.716044
Li -2.070527 -0.557112 0.141133
Li 0.871138 -0.079573 0.015430
Li 1.154059 1.459125 -1.003441
Li 2.600503 2.205672 -0.683062
Li 0.326489 2.147700 0.780649
Li 0.197210 1.062679 -1.637064
Li -1.804348 1.541427 -0.245260
8
 Atoms. Timestep: 580
Li -1.819868 -1.394098 0.761771
Li -2.165720 -0.523289 -0.013312
Li 1.002130 -0.077093 0.084410
Li 1.164218 1.521385 -1.013062
Li 2.611336 2.172480 -0.772890
Li 0.444787 2.074428 0.850571
Li 0.117694 1.110378 -1.572785
Li -1.828130 1.474470 -0.163077
8
 Atoms. Timestep: 590
Li -1.786056 -1.340866 0.812694
Li -2.030341 -0.510880 0.024570
Li 0.956348 -0.032749 -0.064987
Li 1.114915 1.433857 -1.037032
Li 2.462514 2.132077 -0.808302
Li 0.478638 2.049709 0.934701
Li 0.149564 1.019456 -1.516356
Li -1.765056 1.413294 -0.095634
8
 Atoms. Timestep: 600
Li -1.734190 -1.324527 0.692858
Li -2.083734 -0.503953 -0.029701
Li 0.977910 0.079885 0.066885
Li 1.170364 1.520820 -1.005307
Li 2.514005 2.084225 -0.770024
Li 0.473160 1.991878 1.012676
Li 0.179110 0.941838 -1.478163
Li -1.805724 1.428404 -0.237718
8
 Atoms. Timestep: 610
Li -1.802977 -1.221201 0.662362
Li -1.965541 -0.519996 -0.025767
Li 1.060013 0.104319 0.094624
Li 1.166432 1.584336 -0.985037
Li 2.548489 2.113523 -0.838280
Li 0.451186 2.079073 0.959159
Li 0.163737 0.971308 -1.455593
Li -1.805934 1.551596 -0.108803
8
 Atoms. Timestep: 620
Li -1.754349 -1.234189 0.657959
Li -1.991771 -0.498118 -0.030264
Li 1.097743 0.177398 0.035211
Li 1.033468 1.542687 -0.997488
Li 2.493443 2.092672 -0.943309
Li 0.488237 1.938737 0.892020
Li 0.224226 0.928164 -1.393555
Li -1.768919 1.363061 -0.113076
8
 Atoms. Timestep: 630
Li -1.794758 -1.328831 0.694325
Li -1.957594 -0.426067 -0.037353
Li 1.058682 0.211366 0.000486
Li 0.985412 1.541891 -0.949137
Li 2.446843 2.045360 -0.907651
Li 0.373105 2.064497 0.916526
Li 0.283941 0.800722 -1.375041
Li -1.865804 1.356892 -0.130023
8
 Atoms. Timestep: 640
Li -1.785108 -1.285785 0.593108
Li -1.826302 -0.514426 0.017308
Li 1.152537 0.203173 -0.060619
Li 0.952597 1.566824 -0.851264
Li 2.413822 2.037224 -0.968380
Li 0.473437 1.973550 1.013019
Li 0.244786 0.811048 -1.297142
Li -1.758313 1.411499 -0.156440
8
 Atoms. Timestep: 650
Li -1.819597 -1.244927 0.462916
Li -1.846133 -0.539626 -0.173369
Li 1.120728 0.188023 -0.148460
Li 0.988802 1.573741 -0.938789
Li 2.398274 2.044760 -1.036137
Li 0.595162 1.976419 0.973680
Li 0.174390 0.773053 -1.243939
Li -1.704438 1.465471 -0.090493
8
 Atoms. Timestep: 660
Li -1.798230 -1.194667 0.389202
Li -1.848589 -0.524243 -0.097301
Li 1.156499 0.206803 -0.060481
Li 1.007771 1.614743 -0.773085
Li 2.432837 1.987365 -1.000488
Li 0.518782 1.980135 0.966506
Li 0.285108 0.705504 -1.255671
Li -1.809601 1.397497 -0.128815
8
 Atoms. Timestep: 670
Li -1.778995 -1.109016 0.382671
Li -1.708537 -0.506123 -0.158153
Li 1.140307 0.124795 -0.161822
Li 0.943218 1.682827 -0.852662
Li 2.294562 2.044489 -1.051731
Li 0.472311 1.972312 1.019309
Li 0.198317 0.717252 -1.099917
Li -1.780163 1.332008 -0.023411
8
 Atoms. Timestep: 680
Li -1.796627 -1.173211 0.399086
Li -1.647540 -0.456155 -0.156430
Li 1.241402 0.197224 -0.062576
Li 0.903564 1.622263 -0.826463
Li 2.376952 1.952622 -1.121624
Li 0.458991 1.964828 1.054213
Li 0.215710 0.524617 -1.293819
Li -1.718264 1.446328 0.038429
8
 Atoms. Timestep: 690
Li -1.865560 -1.084305 0.323883
Li -1.766057 -0.488141 -0.106944
Li 1.292856 0.230841 -0.158097
Li 0.879638 1.607391 -0.992853
Li 2.279529 2.033516 -1.160659
Li 0.520910 1.891445 1.067566
Li 0.223183 0.585937 -1.154089
Li -1.845973 1.320655 -0.066402
8
 Atoms. Timestep: 700
Li -1.771097 -1.022168 0.303071
Li -1.660396 -0.492689 -0.110717
Li 1.231096 0.234176 -0.083569
Li 0.947073 1.675908 -0.911328
Li 2.246529 1.980055 -1.117332
Li 0.535268 1.828275 1.093424
Li 0.223789 0.458210 -1.087564
Li -1.850769 1.171759 0.047308
8
 Atoms. Timestep: 710
Li -1.732940 -1.007914 0.283738
Li -1.622917 -0.419949 -0.144432
Li 1.238933 0.280541 -0.186135
Li 0.943042 1.757436 -0.823538
Li 2.350650 2.012397 -1.149102
Li 0.547358 1.796414 0.998747
Li 0.247241 0.483801 -0.893794
Li -1.780974 1.353633 0.037926
8
 Atoms. Timestep: 720
Li -1.825715 -0.964420 0.157919
Li -1.550791 -0.461681 -0.139664
Li 1.306211 0.315566 -0.097960
Li 0.936738 1.715988 -0.843492
Li 2.126831 1.991642 -1.228286
Li 0.664181 1.832406 1.015126
Li 0.183995 0.381412 -0.973854
Li -1.707335 1.264753 0.043964
8
 Atoms. Timestep: 730
Li -1.901459 -0.855195 0.202140
Li -1.514062 -0.439651 -0.218812
Li 1.392253 0.382071 -0.116552
Li 0.818882 1.777022 -0.854294
Li 2.168905 1.976782 -1.333912
Li 0.674679 1.876289 1.074972
Li 0.282634 0.416985 -1.005770
Li -1.726121 1.267660 0.154911
8
 Atoms. Timestep: 740
Li -1.806236 -0.920766 0.141606
Li -1.529444 -0.459349 -0.154079
Li 1.337816 0.400517 -0.112703
Li 0.767639 1.858632 -0.809644
Li 2.179916 1.912565 -1.355402
Li 0.573488 1.804088 1.070584
Li 0.271204 0.378614 -0.858505
Li -1.716867 1.269281 0.071730
8
 Atoms. Timestep: 750
Li -1.780939 -0.871045 0.108843
Li -1.437847 -0.369878 -0.193443
Li 1.346646 0.326590 -0.219749
Li 0.788020 1.772275 -0.856288
Li 2.150810 1.957979 -1.404034
Li 0.582540 1.789948 1.226851
Li 0.211622 0.336824 -0.891583
Li -1.703003 1.224877 0.023433
8
 Atoms. Timestep: 760
Li -1.798357 -0.872313 0.008780
Li -1.292243 -0.456236 -0.163019
Li 1.458508 0.533852 -0.083753
Li 0.743403 1.722434 -0.904532
Li 2.086089 1.894536 -1.420772
Li 0.589201 1.783383 1.136216
Li 0.308827 0.232018 -0.881376
Li -1.746667 1.271071 0.117324
8
 Atoms. Timestep: 770
Li -1.795446 -0.805509 0.034697
Li -1.378718 -0.434407 -0.072294
Li 1.412972 0.382027 -0.183435
Li 0.709287 1.816583 -0.829404
Li 2.047009 1.930048 -1.410594
Li 0.568385 1.798282 1.153126
Li 0.251346 0.269448 -0.841674
Li -1.762347 1.230780 0.169616
8
 Atoms. Timestep: 780
Li -1.850716 -0.735687 0.027010
Li -1.333401 -0.459341 -0.220045
Li 1.443515 0.500510 -0.161791
Li 0.781282 1.884504 -0.918298
Li 2.109415 1.844280 -1.514890
Li 0.659996 1.736558 1.215393
Li 0.249304 0.085845 -0.671520
Li -1.708063 1.211672 0.183726
8
 Atoms. Timestep: 790
Li -1.867774 -0.647163 -0.100019
Li -1.272032 -0.282067 -0.275731
Li 1.534006 0.455441 -0.220203
Li 0.781641 1.936302 -0.877752
Li 2.156613 1.901789 -1.567099
Li 0.681728 1.776734 1.204909
Li 0.232417 0.148697 -0.739861
Li -1.772846 1.123491 0.115359
8
 Atoms. Timestep: 800
Li -1.885542 -0.653814 -0.030966
Li -1.163166 -0.340383 -0.222543
Li 1.609276 0.444862 -0.186002
Li 0.749623 1.943049 -0.827122
Li 1.974058 1.806517 -1.633818
Li 0.638135 1.824916 1.281201
Li 0.322998 0.068404 -0.701260
Li -1.761329 1.263314 0.176296
8
 Atoms. Timestep: 810
Li -1.785580 -0.598587 -0.083145
Li -1.199647 -0.413845 -0.283906
Li 1.501798 0.542432 -0.257355
Li 0.658326 1.886283 -0.817520
Li 1.917072 1.791598 -1.634107
Li 0.648318 1.770360 1.115422
Li 0.330497 0.083646 -0.604778
Li -1.708696 1.141551 0.168658
8
 Atoms. Timestep: 820
Li -1.800925 -0.557842 -0.182424
Li -1.102007 -0.281583 -0.214341
Li 1.645200 0.480192 -0.308046
Li 0.676502 1.862226 -0.838460
Li 1.946474 1.763947 -1.634551
Li 0.819045 1.757676 1.112030
Li 0.345213 0.020853 -0.452549
Li -1.646752 1.150343 0.224563
8
 Atoms. Timestep: 830
Li -1.907006 -0.549827 -0.267249
Li -1.109646 -0.329079 -0.207292
Li 1.527482 0.547131 -0.235802
Li 0.648914 1.974453 -0.808420
Li 2.018814 1.830591 -1.677861
Li 0.642172 1.749401 1.189257
Li 0.246579 -0.089890 -0.537600
Li -1.720155 1.108954 0.267544
8
 Atoms. Timestep: 840
Li -1.902777 -0.449648 -0.265501
Li -1.013378 -0.405221 -0.301256
Li 1.583111 0.658012 -0.298231
Li 0.578406 1.920268 -0.702081
Li 1.900626 1.748208 -1.762310
Li 0.720223 1.712000 1.188822
Li 0.240993 -0.133313 -0.546349
Li -1.680189 1.025595 0.314212
8
 Atoms. Timestep: 850
Li -1.886471 -0.514132 -0.283141
Li -1.032710 -0.310780 -0.310214
Li 1.692330 0.695974 -0.321629
Li 0.720327 2.021540 -0.807037
Li 1.859005 1.879684 -1.713582
Li 0.831971 1.703201 1.173214
Li 0.311178 -0.239840 -0.524582
Li -1.692611 0.985947 0.358427
8
 Atoms. Timestep: 860
Li -1.859096 -0.402298 -0.358665
Li -0.988055 -0.334049 -0.359042
Li 1.774113 0.715473 -0.326711
Li 0.647778 2.046139 -0.723307
Li 1.777209 1.785751 -1.739017
Li 0.639858 1.649520 1.326884
Li 0.338814 -0.204965 -0.439113
Li -1.695878 1.012044 0.184746
8
 Atoms. Timestep: 870
Li -1.852033 -0.473934 -0.318288
Li -1.015607 -0.345597 -0.368333
Li 1.689182 0.786759 -0.322324
Li 0.619868 1.978699 -0.760567
Li 1.783904 1.713130 -1.827647
Li 0.735329 1.583116 1.285503
Li 0.474855 -0.196682 -0.420994
Li -1.794816 1.058733 0.307025
8
 Atoms. Timestep: 880
Li -1.797681 -0.352027 -0.419718
Li -0.983546 -0.253250 -0.332572
Li 1.724964 0.690333 -0.398237
Li 0.537546 1.940613 -0.713254
Li 1.781473 1.776263 -1.787272
Li 0.847173 1.694929 1.255081
Li 0.218380 -0.269605 -0.301835
Li -1.709475 1.005129 0.394400
8
 Atoms. Timestep: 890
Li -1.826836 -0.333229 -0.539094
Li -0.871104 -0.265935 -0.347751
Li 1.721717 0.698401 -0.298832
Li 0.620799 2.110549 -0.776820
Li 1.837096 1.735913 -1.838666
Li 0.871856 1.610547 1.195339
Li 0.493808 -0.343772 -0.318057
Li -1.718347 0.995386 0.344569
8
 Atoms. Timestep: 900
Li -1.876794 -0.368531 -0.518209
Li -0.873656 -0.275657 -0.416290
Li 1.789846 0.790750 -0.370057
Li 0.575925 2.068873 -0.672644
Li 1.827507 1.808269 -1.937747
Li 0.709851 1.549676 1.296076
Li 0.421482 -0.443841 -0.319657
Li -1.701408 1.017235 0.333228
8
 Atoms. Timestep: 910
Li -1.866176 -0.223855 -0.502601
Li -0.799280 -0.296419 -0.414898
Li 1.894358 0.837065 -0.284852
Li 0.482690 2.068890 -0.807442
Li 1.743042 1.643373 -1.978262
Li 0.849765 1.558605 1.324373
Li 0.369213 -0.400480 -0.210532
Li -1.704364 0.958860 0.475363
8
 Atoms. Timestep: 920
Li -1.801228 -0.225724 -0.619577
Li -0.733746 -0.204573 -0.414961
Li 1.896205 0.792098 -0.429475
Li 0.538264 2.125559 -0.581537
Li 1.756168 1.759151 -1.934290
Li 0.795433 1.514831 1.313475
Li 0.336725 -0.481834 -0.179966
Li -1.695114 1.027480 0.433681
8
 Atoms. Timestep: 930
Li -1.772251 -0.213546 -0.534309
Li -0.658484 -0.248640 -0.339578
Li 1.961471 0.846847 -0.406818
Li 0.586529 2.043080 -0.695645
Li 1.734681 1.643429 -2.062848
Li 0.866649 1.485875 1.385317
Li 0.397986 -0.500857 -0.111303
Li -1.679909 1.018894 0.370798
8
 Atoms. Timestep: 940
Li -1.886963 -0.287256 -0.697937
Li -0.667615 -0.253283 -0.365768
Li 1.917773 0.933921 -0.439621
Li 0.577135 2.149328 -0.623751
Li 1.645489 1.735625 -2.015587
Li 0.836463 1.552500 1.326754
Li 0.400291 -0.680987 -0.083816
Li -1.575717 0.890176 0.482401
8
 Atoms. Timestep: 950
Li -1.750212 -0.204892 -0.785306
Li -0.674977 -0.282913 -0.397685
Li 2.021435 0.842619 -0.392618
Li 0.434942 2.137399 -0.653314
Li 1.607369 1.696968 -2.046018
Li 0.768826 1.512487 1.390660
Li 0.309939 -0.570118 -0.104004
Li -1.707599 0.921408 0.495741
8
 Atoms. Timestep: 960
Li -1.856531 -0.255839 -0.674110
Li -0.664631 -0.343657 -0.396448
Li 2.072560 0.991445 -0.423674
Li 0.492654 2.096974 -0.711559
Li 1.679974 1.643236 -2.133935
Li 0.937355 1.519553 1.385268
Li 0.343268 -0.581082 -0.028900
Li -1.675834 0.891288 0.509301
8
 Atoms. Timestep: 970
Li -1.905491 -0.146722 -0.829365
Li -0.524374 -0.216011 -0.394214
Li 2.052860 0.977504 -0.420968
Li 0.447393 2.195411 -0.745681
Li 1.521950 1.557973 -2.092102
Li 0.823227 1.521822 1.352178
Li 0.418246 -0.715809 0.051925
Li -1.722570 0.975324 0.473847
8
 Atoms. Timestep: 980
Li -1.814249 -0.114234 -0.769401
Li -0.497540 -0.193391 -0.377505
Li 2.091256 0.857522 -0.311659
Li 0.449000 2.211466 -0.642122
Li 1.555328 1.648398 -2.054886
Li 0.809675 1.441853 1.347343
Li 0.372539 -0.701614 0.066532
Li -1.757595 0.950912 0.520547
8
 Atoms. Timestep: 990
Li -1.874207 -0.057145 -0.854790
Li -0.589915 -0.298160 -0.417169
Li 2.136263 1.037128 -0.388163
Li 0.413787 2.282688 -0.677158
Li 1.549465 1.559193 -2.241787
Li 0.838794 1.493332 1.440171
Li 0.385157 -0.693125 0.076834
Li -1.557893 0.876578 0.625269
8
 Atoms. Timestep: 1000
Li -1.817135 -0.070953 -0.876242
Li -0.464340 -0.201877 -0.498678
Li 2.135746 0.991596 -0.342538
Li 0.364731 2.226392 -0.640681
Li 1.518562 1.531756 -2.254714
Li 0.971744 1.393295 1.443714
Li 0.405315 -0.794934 0.097374
Li -1.579544 0.928394 0.607318
8
 Atoms. Timestep: 1010
Li -1.864441 -0.079721 -0.961883
Li -0.529743 -0.218962 -0.490398
Li 2.047214 0.994305 -0.487476
Li 0.438051 2.290383 -0.652613
Li 1.633007 1.614544 -2.264153
Li 0.926035 1.472324 1.451768
Li 0.450796 -0.879075 0.168712
Li -1.622598 0.881531 0.627733
8
 Atoms. Timestep: 1020
Li -1.760736 -0.018911 -1.012245
Li -0.397016 -0.204305 -0.543749
Li 2.195337 0.951107 -0.454496
Li 0.414654 2.334345 -0.661452
Li 1.566345 1.543098 -2.339405
Li 0.944734 1.506693 1.437914
Li 0.400593 -0.821375 0.268204
Li -1.653113 0.920709 0.690903
8
 Atoms. Timestep: 1030
Li -1.891475 0.088969 -0.966696
Li -0.380182 -0.248133 -0.531868
Li 2.153604 1.030159 -0.472606
Li 0.331386 2.350754 -0.591304
Li 1.472265 1.517967 -2.326281
Li 0.886438 1.442115 1.420628
Li 0.456452 -0.925923 0.169268
Li -1.744022 0.828960 0.619266
8
 Atoms. Timestep: 1040
Li -1.827803 0.126861 -0.968414
Li -0.333598 -0.182163 -0.553770
Li 2.146417 1.086843 -0.440054
Li 0.279545 2.201571 -0.605493
Li 1.510839 1.590233 -2.277179
Li 0.926220 1.341423 1.387172
Li 0.484498 -0.889984 0.362512
Li -1.711570 0.781527 0.670476
8
 Atoms. Timestep: 1050
Li -1.857255 0.082502 -1.063518
Li -0.272388 -0.206022 -0.459138
Li 2.198410 1.095103 -0.457743
Li 0.291392 2.349806 -0.550151
Li 1.358618 1.609975 -2.432887
Li 0.869281 1.353179 1.456769
Li 0.402673 -0.957980 0.277262
Li -1.672193 0.835796 0.731211
8
 Atoms. Timestep: 1060
Li -1.840856 0.055671 -1.051145
Li -0.252252 -0.165776 -0.610806
Li 2.195963 1.039951 -0.504464
Li 0.433272 2.307977 -0.701054
Li 1.400504 1.594097 -2.528028
Li 0.927882 1.282834 1.428159
Li 0.342587 -1.012917 0.331388
Li -1.609981 0.791563 0.720916
8
 Atoms. Timestep: 1070
Li -1.843149 0.183601 -1.081283
Li -0.288753 -0.149736 -0.545847
Li 2.203222 1.109637 -0.531787
Li 0.299713 2.267101 -0.621675
Li 1.280524 1.501710 -2.409331
Li 1.008813 1.408752 1.479062
Li 0.422511 -1.013568 0.428320
Li -1.690242 0.753369 0.734577
8
 Atoms. Timestep: 1080
Li -1.856318 0.255955 -1.155073
Li -0.203571 -0.213616 -0.581234
Li 2.284936 1.199714 -0.489340
Li 0.326297 2.375463 -0.682350
Li 1.369593 1.453876 -2.439253
Li 1.030245 1.288997 1.649582
Li 0.388887 -1.094468 0.396849
Li -1.595053 0.741712 0.722330
8
 Atoms. Timestep: 1090
Li -1.837310 0.181656 -1.283713
Li -0.218016 -0.196502 -0.549353