# LAMMPS数据文件 (适用于 atom_style full)

3 atoms
1 atom types

# 模拟盒子的尺寸
0.0 20.0 xlo xhi
0.0 20.0 ylo yhi
0.0 20.0 zlo zhi

Masses

1 39.948

Atoms

# 原子ID 分子ID 原子类型 电荷    x坐标    y坐标    z坐标
1      1      1      0.0   5.0      5.0      5.0
2      1      1      0.0   6.2      5.0      5.0
3      1      1      0.0   5.5      6.0      5.5