8
 Atoms. Timestep: 0
Li -1.739839 -2.577529 2.241470
Li -3.403735 -0.869486 0.438354
Li -0.116816 -0.837931 0.468447
Li 0.048347 -4.256651 0.479573
Li 1.727310 0.807172 -1.284266
Li 3.388106 2.553238 0.426259
Li 0.022388 2.605453 0.343463
Li -0.020629 2.582364 -3.069868
8
 Atoms. Timestep: 10
Li -1.688855 -2.579431 2.088475
Li -3.353146 -0.869971 0.441105
Li 0.035140 -0.900976 0.485736
Li -0.004354 -4.350612 0.454474
Li 1.650757 0.802573 -1.363647
Li 3.442650 2.648795 0.442311
Li -0.024203 2.545673 0.468926
Li -0.088614 2.562616 -2.959254
8
 Atoms. Timestep: 20
Li -1.665626 -2.564087 2.294130
Li -3.307205 -0.856255 0.403772
Li -0.005073 -0.813016 0.468248
Li 0.030020 -4.283522 0.453366
Li 1.709647 0.819837 -1.282881
Li 3.431045 2.521715 0.455964
Li 0.026396 2.571524 0.513497
Li -0.031210 2.599640 -2.995795
8
 Atoms. Timestep: 30
Li -1.679011 -2.570297 2.135568
Li -3.422264 -0.813633 0.452119
Li 0.075809 -0.816755 0.423066
Li 0.087738 -4.285261 0.347773
Li 1.752864 0.855888 -1.195731
Li 3.472893 2.525973 0.392669
Li -0.011286 2.584641 0.453214
Li -0.022081 2.648613 -2.904365
8
 Atoms. Timestep: 40
Li -1.634583 -2.500627 2.175353
Li -3.443852 -0.769039 0.450058
Li 0.018278 -0.839572 0.491583
Li 0.067933 -4.229282 0.444433
Li 1.880716 0.997958 -1.359960
Li 3.487288 2.530524 0.529857
Li -0.078867 2.597346 0.414701
Li 0.096405 2.651364 -3.086263
8
 Atoms. Timestep: 50
Li -1.610411 -2.537003 2.187030
Li -3.343026 -0.796298 0.530705
Li 0.062877 -0.709293 0.441445
Li -0.009641 -4.294702 0.390092
Li 1.726069 0.871998 -1.227916
Li 3.555492 2.571032 0.495335
Li 0.083009 2.579573 0.392877
Li 0.071446 2.560679 -2.867209
8
 Atoms. Timestep: 60
Li -1.667176 -2.476303 2.244966
Li -3.289586 -0.735495 0.401285
Li 0.032239 -0.798069 0.443374
Li 0.170163 -4.171468 0.418433
Li 1.853167 0.959658 -1.223962
Li 3.515877 2.601926 0.524149
Li 0.083966 2.711359 0.524223
Li -0.000020 2.628693 -3.001342
8
 Atoms. Timestep: 70
Li -1.670747 -2.423933 2.206068
Li -3.255843 -0.746213 0.569118
Li 0.115123 -0.731576 0.472680
Li 0.098958 -4.203726 0.477655
Li 1.805544 1.011967 -1.148487
Li 3.469200 2.612011 0.597261
Li 0.026487 2.744595 0.538911
Li 0.032993 2.585137 -2.824859
8
 Atoms. Timestep: 80
Li -1.645303 -2.400837 2.227947
Li -3.218440 -0.699304 0.527165
Li 0.095262 -0.690588 0.506770
Li 0.028598 -4.147949 0.492411
Li 1.807041 0.978651 -1.138045
Li 3.619319 2.636014 0.681534
Li 0.296602 2.649679 0.507901
Li 0.187705 2.635800 -2.797233
8
 Atoms. Timestep: 90
Li -1.513926 -2.388354 2.311127
Li -3.281072 -0.771814 0.549085
Li 0.273002 -0.688864 0.538093
Li 0.135249 -4.043995 0.587583
Li 1.800424 1.087376 -1.167827
Li 3.544950 2.650564 0.668666
Li 0.118528 2.678726 0.657688
Li 0.090651 2.722632 -2.741465
8
 Atoms. Timestep: 100
Li -1.487560 -2.331215 2.339923
Li -3.175032 -0.632821 0.602637
Li 0.209881 -0.636018 0.714812
Li 0.169456 -3.951195 0.669998
Li 1.905768 1.047371 -1.037685
Li 3.595071 2.671767 0.626069
Li 0.132038 2.671093 0.639658
Li 0.232185 2.752619 -2.809975
8
 Atoms. Timestep: 110
Li -1.526677 -2.270341 2.334658
Li -3.076365 -0.498440 0.640824
Li 0.217756 -0.643646 0.639266
Li 0.236979 -3.888148 0.603643
Li 2.014910 1.134583 -1.141704
Li 3.605467 2.769241 0.772369
Li 0.189456 2.659529 0.747181
Li 0.242297 2.793511 -2.760595
8
 Atoms. Timestep: 120
Li -1.428031 -2.255127 2.387142
Li -3.148823 -0.518999 0.690276
Li 0.424317 -0.528941 0.741890
Li 0.282049 -3.919999 0.655002
Li 1.969285 1.183620 -1.026581
Li 3.624296 2.832888 0.717059
Li 0.269911 2.787741 0.672208
Li 0.223891 2.853508 -2.653253
8
 Atoms. Timestep: 130
Li -1.413152 -2.104541 2.443207
Li -3.043363 -0.540959 0.723646
Li 0.412580 -0.481969 0.676678
Li 0.262644 -3.863395 0.754184
Li 1.984509 1.163817 -1.015378
Li 3.758521 2.793722 0.795362
Li 0.290545 2.833841 0.744354
Li 0.400486 2.830774 -2.481878
8
 Atoms. Timestep: 140
Li -1.293232 -2.075206 2.502022
Li -2.990746 -0.429277 0.800234
Li 0.464348 -0.439536 0.813067
Li 0.465042 -3.689856 0.868281
Li 2.059922 1.271637 -0.961163
Li 3.686703 2.893486 0.822514
Li 0.353125 2.892611 0.851839
Li 0.327869 2.853646 -2.565917
8
 Atoms. Timestep: 150
Li -1.336576 -2.071601 2.427823
Li -2.902793 -0.370106 0.813783
Li 0.561877 -0.264085 0.785186
Li 0.415007 -3.767072 0.879211
Li 2.081800 1.310995 -0.876853
Li 3.738065 3.009816 0.817998
Li 0.402306 2.913918 0.833594
Li 0.374923 2.897314 -2.461945
8
 Atoms. Timestep: 160
Li -1.209400 -1.979212 2.465593
Li -2.846126 -0.479308 0.818581
Li 0.555869 -0.361683 0.837968
Li 0.471884 -3.625851 0.828237
Li 2.140945 1.332346 -0.917616
Li 3.838543 2.997494 1.006067
Li 0.473538 2.981629 0.915898
Li 0.437292 3.036330 -2.421428
8
 Atoms. Timestep: 170
Li -1.161156 -1.901480 2.540997
Li -2.711323 -0.316299 1.046219
Li 0.626440 -0.267832 0.960745
Li 0.506548 -3.493792 0.990983
Li 2.308603 1.424153 -0.843016
Li 3.883193 3.040108 1.040420
Li 0.538968 2.951154 1.043889
Li 0.406450 2.989313 -2.362784
8
 Atoms. Timestep: 180
Li -1.103688 -1.816064 2.574495
Li -2.690222 -0.297907 0.988015
Li 0.606588 -0.196597 1.056121
Li 0.610069 -3.302094 1.009738
Li 2.262109 1.504731 -0.766701
Li 3.973830 3.129968 1.091686
Li 0.618957 3.019680 1.099017
Li 0.551072 3.083041 -2.176894
8
 Atoms. Timestep: 190
Li -0.995684 -1.810401 2.614090
Li -2.578740 -0.117548 1.075666
Li 0.770313 0.014045 0.959874
Li 0.602784 -3.249883 1.038641
Li 2.366329 1.612671 -0.628889
Li 4.039730 3.207064 1.213009
Li 0.638681 2.991778 1.125247
Li 0.592966 3.130285 -2.159799
8
 Atoms. Timestep: 200
Li -1.015731 -1.740189 2.670380
Li -2.522738 -0.059944 1.104665
Li 0.859312 0.044660 1.100704
Li 0.760880 -3.209628 1.180351
Li 2.447570 1.617755 -0.672831
Li 4.051248 3.179676 1.216889
Li 0.742552 3.102169 1.181036
Li 0.677013 3.166697 -2.082085
8
 Atoms. Timestep: 210
Li -1.044302 -1.656981 2.695147
Li -2.434131 -0.040623 1.240004
Li 1.028618 0.107023 1.198832
Li 0.778576 -3.132513 1.172145
Li 2.558414 1.706867 -0.529128
Li 4.113375 3.408627 1.335693
Li 0.862151 3.107836 1.360781
Li 0.762766 3.247561 -2.015177
8
 Atoms. Timestep: 220
Li -0.832639 -1.437504 2.842584
Li -2.364585 0.063608 1.237886
Li 1.140110 0.224216 1.249008
Li 0.962963 -2.961273 1.262855
Li 2.642463 1.714932 -0.456167
Li 4.249246 3.365904 1.339495
Li 0.890270 3.185812 1.380428
Li 0.738547 3.336324 -1.804057
8
 Atoms. Timestep: 230
Li -0.824787 -1.450152 2.751060
Li -2.337797 0.161687 1.332019
Li 1.098802 0.194103 1.272503
Li 0.942055 -2.918771 1.321224
Li 2.681889 1.710364 -0.527729
Li 4.168803 3.422150 1.410346
Li 0.897883 3.192759 1.444100
Li 0.859281 3.412767 -1.788817
8
 Atoms. Timestep: 240
Li -0.704675 -1.237613 2.904450
Li -2.104078 0.313681 1.409452
Li 1.191227 0.388056 1.383892
Li 1.013495 -2.673946 1.372457
Li 2.729401 2.002837 -0.445814
Li 4.307067 3.531742 1.588199
Li 0.977576 3.309555 1.507309
Li 0.953041 3.468325 -1.742220
8
 Atoms. Timestep: 250
Li -0.546559 -1.019905 3.083114
Li -2.033112 0.366088 1.448636
Li 1.351043 0.350525 1.400195
Li 1.105700 -2.661426 1.476848
Li 2.801398 2.089094 -0.310566
Li 4.369953 3.560020 1.667145
Li 1.185717 3.324694 1.614765
Li 0.960118 3.552891 -1.538113
8
 Atoms. Timestep: 260
Li -0.506641 -1.176540 3.071968
Li -1.786113 0.419964 1.548018
Li 1.484129 0.614888 1.545573
Li 1.146948 -2.634230 1.568739
Li 2.815607 2.134366 -0.254098
Li 4.564235 3.682413 1.598501
Li 1.295832 3.373869 1.696021
Li 1.146858 3.574808 -1.431127
8
 Atoms. Timestep: 270
Li -0.397290 -0.981414 2.961411
Li -1.840730 0.461871 1.575216
Li 1.460938 0.625851 1.577013
Li 1.346086 -2.309126 1.661736
Li 2.823771 2.227064 -0.231483
Li 4.609262 3.845173 1.829962
Li 1.265912 3.455744 1.850833
Li 1.066719 3.739849 -1.340619
8
 Atoms. Timestep: 280
Li -0.430009 -0.926042 3.152935
Li -1.587905 0.601865 1.617244
Li 1.688244 0.783753 1.761524
Li 1.388876 -2.262865 1.677569
Li 2.993657 2.223379 -0.000713
Li 4.651398 3.802219 1.932733
Li 1.577744 3.476448 1.891630
Li 1.228835 3.801161 -1.347960
8
 Atoms. Timestep: 290
Li -0.219804 -0.721145 3.182605
Li -1.509240 0.662303 1.813311
Li 1.766775 0.855981 1.793509
Li 1.461309 -2.190401 1.845068
Li 3.206350 2.367003 0.006990
Li 4.684763 3.913137 2.105546
Li 1.516341 3.592745 2.029114
Li 1.374906 3.831684 -1.086129
8
 Atoms. Timestep: 300
Li -0.103578 -0.724918 3.301232
Li -1.456482 0.803912 1.872559
Li 1.871650 0.971619 1.870680
Li 1.589507 -1.894664 2.039057
Li 3.179554 2.507480 0.112598
Li 4.728057 3.964107 2.148799
Li 1.611687 3.710024 2.077161
Li 1.306863 4.001580 -1.006889
8
 Atoms. Timestep: 310
Li -0.138109 -0.461082 3.369747
Li -1.264190 0.880031 1.950167
Li 1.962297 1.068879 2.002599
Li 1.627716 -1.861505 1.939176
Li 3.249384 2.548242 0.210584
Li 4.825560 4.191144 2.209224
Li 1.729482 3.814158 2.102769
Li 1.502684 4.071435 -0.884835
8
 Atoms. Timestep: 320
Li 0.106388 -0.414783 3.472355
Li -1.158805 1.023531 2.047207
Li 2.106173 1.227832 2.042783
Li 1.761647 -1.702424 2.141180
Li 3.300169 2.581388 0.330918
Li 4.950604 4.193766 2.374819
Li 1.807007 3.875958 2.273611
Li 1.568333 4.115364 -0.699447
8
 Atoms. Timestep: 330
Li 0.204808 -0.260245 3.583392
Li -1.015073 1.173421 2.204616
Li 2.240539 1.332928 2.133188
Li 1.830257 -1.487263 2.232814
Li 3.424670 2.773762 0.451126
Li 5.024500 4.298276 2.578893
Li 2.032463 3.845335 2.402212
Li 1.636248 4.178289 -0.604662
8
 Atoms. Timestep: 340
Li 0.268501 -0.065070 3.481641
Li -0.966847 1.252190 2.271851
Li 2.363056 1.489620 2.271794
Li 1.940946 -1.365293 2.273662
Li 3.581348 2.866405 0.453347
Li 5.238499 4.376710 2.765530
Li 2.126847 3.916296 2.516455
Li 1.865962 4.348915 -0.473723
8
 Atoms. Timestep: 350
Li 0.439995 -0.038198 3.650310
Li -0.746947 1.390859 2.256761
Li 2.463446 1.550852 2.322697
Li 1.974393 -1.183072 2.336922
Li 3.687126 3.067634 0.589223
Li 5.189269 4.443665 2.646902
Li 2.160474 3.985597 2.645475
Li 1.925462 4.446606 -0.349924
8
 Atoms. Timestep: 360
Li 0.453685 0.151741 3.768077
Li -0.670210 1.471976 2.380551
Li 2.585777 1.725275 2.460219
Li 2.202395 -1.011440 2.541144
Li 3.758574 3.151718 0.628699
Li 5.316521 4.436418 2.730217
Li 2.153797 4.085393 2.812440
Li 1.981562 4.471151 -0.154555
8
 Atoms. Timestep: 370
Li 0.636234 0.287059 3.829844
Li -0.501458 1.623531 2.601110
Li 2.775934 1.865832 2.557519
Li 2.361998 -0.926322 2.597011
Li 3.900526 3.135134 0.765930
Li 5.348652 4.680826 2.950089
Li 2.377160 4.232819 2.938716
Li 2.139288 4.608902 0.006070
8
 Atoms. Timestep: 380
Li 0.692951 0.320740 3.914223
Li -0.378210 1.747090 2.703694
Li 2.893915 2.010104 2.743894
Li 2.380002 -0.705821 2.700378
Li 4.038487 3.357167 0.799442
Li 5.471950 4.967675 3.099557
Li 2.542369 4.305730 2.983571
Li 2.031977 4.757235 0.084273
8
 Atoms. Timestep: 390
Li 0.788773 0.578331 3.886474
Li -0.251127 1.910223 2.733830
Li 3.056912 2.076481 2.753090
Li 2.604639 -0.563844 2.852802
Li 4.099795 3.468819 0.984694
Li 5.607233 4.807534 3.198701
Li 2.620467 4.337224 3.196626
Li 2.340715 4.779631 0.246501
8
 Atoms. Timestep: 400
Li 0.892368 0.595068 4.112209
Li -0.065781 1.942449 2.831879
Li 3.152120 2.357512 2.895138
Li 2.666348 -0.374936 2.995080
Li 4.217107 3.628891 1.017705
Li 5.639838 4.977353 3.318613
Li 2.743936 4.494977 3.115469
Li 2.379810 4.920091 0.309914
8
 Atoms. Timestep: 410
Li 1.036833 0.901830 4.257986
Li 0.081143 2.127835 2.973411
Li 3.258169 2.383102 2.886550
Li 2.712793 -0.209267 3.023674
Li 4.286169 3.653615 1.253489
Li 5.722207 5.086715 3.481688
Li 2.920006 4.542781 3.360485
Li 2.584796 4.992056 0.649676
8
 Atoms. Timestep: 420
Li 1.129182 0.981955 4.264284
Li 0.279135 2.117184 3.098443
Li 3.362399 2.510552 3.072467
Li 2.856089 0.069718 3.149729
Li 4.355865 3.857088 1.266381
Li 5.854586 5.139374 3.543276
Li 3.041778 4.579036 3.472814
Li 2.547754 5.023857 0.732476
8
 Atoms. Timestep: 430
Li 1.253179 1.082197 4.286473
Li 0.413424 2.326616 3.263644
Li 3.547610 2.656073 3.203038
Li 3.003564 0.212002 3.361535
Li 4.543470 3.912689 1.365891
Li 6.038711 5.242792 3.771787
Li 3.151192 4.693628 3.691447
Li 2.634110 5.211081 0.845373
8
 Atoms. Timestep: 440
Li 1.417766 1.222420 4.456897
Li 0.591989 2.384235 3.267815
Li 3.714493 2.898078 3.292213
Li 3.065583 0.420842 3.390863
Li 4.719582 4.088347 1.465574
Li 6.102377 5.426631 3.698921
Li 3.252219 4.745158 3.816021
Li 2.840223 5.396110 0.948581
8
 Atoms. Timestep: 450
Li 1.466310 1.439439 4.549529
Li 0.760113 2.569079 3.434419
Li 3.889247 2.967303 3.438836
Li 3.258371 0.564448 3.433064
Li 4.796189 4.312103 1.593056
Li 6.236642 5.559823 4.066865
Li 3.377844 4.871585 3.854969
Li 2.947665 5.459589 1.178848
8
 Atoms. Timestep: 460
Li 1.582105 1.586291 4.641205
Li 0.819983 2.777347 3.504797
Li 4.069969 3.121089 3.591173
Li 3.353251 0.732024 3.625899
Li 4.969696 4.290232 1.776448
Li 6.267129 5.640954 4.151496
Li 3.558957 4.910981 3.890310
Li 3.012112 5.527501 1.351017
8
 Atoms. Timestep: 470
Li 1.822736 1.742241 4.696612
Li 1.001818 2.884770 3.681066
Li 4.187784 3.271000 3.696489
Li 3.550790 0.909432 3.754644
Li 5.010603 4.446081 1.830113
Li 6.324850 5.800423 4.250781
Li 3.660002 5.074845 4.169048
Li 3.192588 5.618787 1.457788
8
 Atoms. Timestep: 480
Li 1.949124 1.906891 4.890425
Li 1.250531 2.977013 3.879348
Li 4.335793 3.456810 3.805691
Li 3.625927 1.038431 3.956004
Li 5.233442 4.561720 1.872474
Li 6.553908 5.896304 4.398960
Li 3.830499 5.069572 4.249750
Li 3.376052 5.724921 1.671974
8
 Atoms. Timestep: 490
Li 2.047539 2.117490 4.990940
Li 1.376694 3.108561 3.907904
Li 4.529777 3.534931 3.932748
Li 3.719444 1.337889 3.956091
Li 5.296892 4.770538 2.014575
Li 6.741920 6.068872 4.587610
Li 3.901317 5.203389 4.341478
Li 3.412056 5.817666 1.792008
8
 Atoms. Timestep: 500
Li 2.178032 2.210008 5.061201
Li 1.566651 3.325265 3.991483
Li 4.724217 3.771542 4.017726
Li 3.919777 1.444249 4.139973
Li 5.372245 4.895009 2.082405
Li 6.760189 6.100899 4.674219
Li 3.978450 5.357336 4.486645
Li 3.490054 6.047950 1.991209
8
 Atoms. Timestep: 510
Li 2.247745 2.363224 5.122008
Li 1.732259 3.450861 4.203581
Li 4.915829 3.906974 4.172477
Li 4.084261 1.692758 4.375103
Li 5.625682 5.058888 2.251691
Li 6.928523 6.266606 4.785180
Li 4.293912 5.432927 4.847161
Li 3.637235 6.087308 2.259094
8
 Atoms. Timestep: 520
Li 2.402765 2.611973 5.276184
Li 1.910837 3.736719 4.228229
Li 5.035851 4.046171 4.345495
Li 4.213473 1.967960 4.465472
Li 5.731680 5.211210 2.296984
Li 7.102576 6.378874 5.035512
Li 4.296312 5.474817 4.855124
Li 3.737762 6.270104 2.298168
8
 Atoms. Timestep: 530
Li 2.546593 2.810914 5.247328
Li 2.034421 3.753414 4.469551
Li 5.138650 4.184117 4.403803
Li 4.290956 2.133166 4.612870
Li 5.764765 5.320173 2.594247
Li 7.025567 6.461719 5.176232
Li 4.432500 5.689363 5.046923
Li 3.962227 6.324180 2.432653
8
 Atoms. Timestep: 540
Li 2.734020 2.968301 5.406911
Li 2.241385 3.740054 4.554527
Li 5.348655 4.387627 4.615486
Li 4.504031 2.165135 4.619370
Li 6.027819 5.452184 2.539595
Li 7.221126 6.630747 5.335223
Li 4.674019 5.761616 5.155599
Li 4.054150 6.445292 2.635361
8
 Atoms. Timestep: 550
Li 2.850397 3.071710 5.522014
Li 2.403363 3.952937 4.712115
Li 5.450698 4.598589 4.725878
Li 4.637678 2.550662 4.796779
Li 6.130719 5.604195 2.818485
Li 7.390194 6.753726 5.539017
Li 4.741063 5.879654 5.396448
Li 4.221830 6.529050 2.961407
8
 Atoms. Timestep: 560
Li 2.943163 3.303395 5.640820
Li 2.637750 4.164581 4.761564
Li 5.617053 4.648842 4.876934
Li 4.717891 2.626415 4.946451
Li 6.266482 5.703811 2.935001
Li 7.482105 6.858538 5.603112
Li 4.889342 5.946253 5.450308
Li 4.319667 6.695736 3.079123
8
 Atoms. Timestep: 570
Li 3.110386 3.495147 5.724637
Li 2.884489 4.281666 4.887353
Li 5.766115 4.863517 4.856415
Li 4.945494 2.879812 5.062468
Li 6.359178 5.961215 2.974815
Li 7.599762 7.027140 5.780865
Li 5.054361 6.052752 5.538978
Li 4.424120 6.798600 3.308263
8
 Atoms. Timestep: 580
Li 3.237412 3.600957 5.833974
Li 3.050509 4.579904 5.090180
Li 6.008349 5.068781 5.038748
Li 5.054524 3.134069 5.164796
Li 6.524051 6.054751 3.092693
Li 7.750457 7.030970 5.890345
Li 5.249955 6.084533 5.727754
Li 4.558578 6.934504 3.463109
8
 Atoms. Timestep: 590
Li 3.467839 3.824689 6.009957
Li 3.103841 4.609288 5.180281
Li 6.162145 5.133365 5.178232
Li 5.216045 3.286782 5.279453
Li 6.711444 6.153738 3.249341
Li 7.877540 7.246201 6.083512
Li 5.437628 6.217672 5.940499
Li 4.625540 7.050056 3.627934
8
 Atoms. Timestep: 600
Li 3.527760 4.051605 6.062193
Li 3.254196 4.803842 5.403099
Li 6.318256 5.391160 5.339328
Li 5.348525 3.547850 5.547583
Li 6.666371 6.305702 3.461167
Li 7.960608 7.353326 6.239852
Li 5.515508 6.356602 6.003596
Li 4.715373 7.258094 3.846681
8
 Atoms. Timestep: 610
Li 3.668569 4.121745 6.183928
Li 3.527026 4.934927 5.448304
Li 6.492724 5.528646 5.496260
Li 5.539262 3.726955 5.627573
Li 6.893203 6.505357 3.518406
Li 8.079649 7.436825 6.504801
Li 5.643340 6.391585 6.306653
Li 4.943618 7.355831 3.934988
8
 Atoms. Timestep: 620
Li 3.844234 4.419826 6.243642
Li 3.666393 5.032816 5.693712
Li 6.645096 5.651645 5.634859
Li 5.597025 4.015651 5.634976
Li 7.020127 6.669612 3.638261
Li 8.155822 7.623969 6.570338
Li 5.745464 6.539945 6.415126
Li 5.078863 7.409010 4.168342
8
 Atoms. Timestep: 630
Li 3.962670 4.480028 6.331735
Li 3.866835 5.377197 5.778810
Li 6.831698 5.935398 5.765036
Li 5.758000 4.196874 5.796653
Li 7.128048 6.867905 3.848335
Li 8.360158 7.781464 6.712498
Li 6.000305 6.575579 6.453658
Li 5.196813 7.739769 4.318437
8
 Atoms. Timestep: 640
Li 4.184275 4.608285 6.484286
Li 4.011067 5.367192 5.938708
Li 7.069648 6.074016 5.807791
Li 5.958638 4.399227 6.020972
Li 7.322516 7.004668 3.891465
Li 8.494211 7.923810 6.902137
Li 6.243790 6.758039 6.695354
Li 5.344294 7.718506 4.642668
8
 Atoms. Timestep: 650
Li 4.305403 4.886108 6.548408
Li 4.229074 5.519983 6.042229
Li 7.215170 6.161333 6.088267
Li 6.037370 4.601395 6.201384
Li 7.381703 7.089135 3.998665
Li 8.577111 8.062632 7.014866
Li 6.334899 6.797702 6.859693
Li 5.451487 7.838934 4.763242
8
 Atoms. Timestep: 660
Li 4.469943 5.013631 6.677290
Li 4.495492 5.684358 6.159134
Li 7.384092 6.390511 6.174025
Li 6.351320 4.886275 6.364489
Li 7.650335 7.220267 4.277805
Li 8.714011 8.184871 7.293380
Li 6.361363 6.834230 7.037306
Li 5.557364 7.992205 4.944848
8
 Atoms. Timestep: 670
Li 4.404423 5.237131 6.684555
Li 4.682070 5.892686 6.254064
Li 7.627187 6.623137 6.287745
Li 6.358141 5.074625 6.381722
Li 7.761042 7.430373 4.425180
Li 8.869342 8.288859 7.405181
Li 6.584014 7.073856 7.089850
Li 5.648007 8.093239 5.140492
8
 Atoms. Timestep: 680
Li 4.644984 5.353132 6.905664
Li 4.790526 6.031882 6.458640
Li 7.811519 6.713496 6.523667
Li 6.419348 5.244172 6.654948
Li 7.852629 7.487447 4.426705
Li 9.018190 8.467889 7.578404
Li 6.749884 7.183170 7.356860
Li 5.958100 8.239743 5.259047
8
 Atoms. Timestep: 690
Li 4.888110 5.664337 7.001487
Li 4.988156 6.259291 6.578317
Li 7.893055 6.909265 6.533301
Li 6.657204 5.491322 6.771440
Li 7.999070 7.705612 4.552808
Li 9.057512 8.577160 7.645329
Li 6.836546 7.218514 7.509602
Li 5.956255 8.426580 5.502858
8
 Atoms. Timestep: 700
Li 4.965286 5.815822 7.133655
Li 5.136514 6.366327 6.694096
Li 8.156972 7.167804 6.661224
Li 6.790797 5.662525 6.931393
Li 8.209290 7.873144 4.760620
Li 9.252752 8.750078 7.802604
Li 7.061367 7.304999 7.710084
Li 6.125718 8.489801 5.730120
8
 Atoms. Timestep: 710
Li 5.197409 5.948656 7.204275
Li 5.443656 6.562435 6.857595
Li 8.284575 7.215811 6.817376
Li 7.071524 5.965272 6.973875
Li 8.409896 7.967924 4.870963
Li 9.328629 8.888754 8.051495
Li 7.176762 7.480031 7.688880
Li 6.269130 8.562728 5.774385
8
 Atoms. Timestep: 720
Li 5.333489 6.243184 7.270733
Li 5.473812 6.605089 7.009224
Li 8.454432 7.428042 7.070952
Li 6.998861 6.219262 7.128316
Li 8.381323 8.197061 4.907246
Li 9.481723 8.946210 8.203559
Li 7.412641 7.540568 7.962100
Li 6.405983 8.781141 6.033602
8
 Atoms. Timestep: 730
Li 5.420305 6.289780 7.388773
Li 5.747521 6.894516 7.124009
Li 8.599137 7.582313 7.168131
Li 7.254571 6.417542 7.301452
Li 8.544588 8.331889 5.032474
Li 9.556959 9.163286 8.283323
Li 7.444734 7.648292 8.017683
Li 6.529973 8.776481 6.237541
8
 Atoms. Timestep: 740
Li 5.578455 6.489399 7.546029
Li 5.894347 6.997166 7.356133
Li 8.799010 7.781684 7.367650
Li 7.351779 6.628346 7.485823
Li 8.690823 8.549950 5.163192
Li 9.777831 9.305483 8.492926
Li 7.722548 7.821450 8.267239
Li 6.592060 9.031679 6.464990
8
 Atoms. Timestep: 750
Li 5.746349 6.605040 7.764320
Li 6.230346 7.127758 7.411770
Li 8.970710 8.019154 7.382730
Li 7.535354 6.870693 7.679925
Li 9.000412 8.635445 5.313023
Li 9.940250 9.317018 8.700358
Li 7.878605 7.818920 8.453800
Li 6.808156 9.199323 6.600207
8
 Atoms. Timestep: 760
Li 5.933755 6.850292 7.825885
Li 6.439459 7.327341 7.556418
Li 9.152244 8.122900 7.593485
Li 7.681847 7.085663 7.667018
Li 9.068665 8.873745 5.459370
Li 10.082589 9.613746 8.792060
Li 8.027544 7.846646 8.575716
Li 6.951748 9.329580 6.808039
8
 Atoms. Timestep: 770
Li 6.008787 7.152160 7.861213
Li 6.420158 7.479869 7.622272
Li 9.251058 8.393478 7.687174
Li 7.785054 7.222816 7.838184
Li 9.113770 8.942223 5.665027
Li 10.162027 9.585551 9.035549
Li 8.204846 8.066329 8.707637
Li 7.055965 9.426938 6.956282
8
 Atoms. Timestep: 780
Li 6.291152 7.229224 8.006929
Li 6.726041 7.708006 7.901497
Li 9.470173 8.490889 7.854584
Li 8.029364 7.542884 8.002450
Li 9.198879 9.098792 5.803362
Li 10.262243 9.769966 9.217711
Li 8.368224 8.144893 8.866717
Li 7.197472 9.617519 7.197677
8
 Atoms. Timestep: 790
Li 6.276071 7.357407 8.070776
Li 6.861989 7.781110 7.975737
Li 9.698297 8.664805 7.966951
Li 8.155008 7.679026 8.148695
Li 9.411481 9.225794 5.886059
Li 10.324151 9.962555 9.330593
Li 8.527732 8.234386 9.158928
Li 7.301231 9.636914 7.335590
8
 Atoms. Timestep: 800
Li 6.443878 7.617387 8.181678
Li 7.120300 7.955078 8.144406
Li 9.822738 8.824753 8.142415
Li 8.382182 7.874592 8.287081
Li 9.612127 9.447050 5.936927
Li 10.472550 10.149420 9.509847
Li 8.646706 8.352620 9.214488
Li 7.415224 9.723603 7.610348
8
 Atoms. Timestep: 810
Li 6.589460 7.870000 8.303184
Li 7.251681 8.082792 8.243918
Li 9.944463 9.021679 8.235204
Li 8.439104 8.196542 8.434260
Li 9.735221 9.619853 6.163543
Li 10.660047 10.132479 9.702010
Li 8.826512 8.378618 9.336896
Li 7.723709 9.946300 7.721759
8
 Atoms. Timestep: 820
Li 6.761194 8.012670 8.459639
Li 7.456300 8.212723 8.322121
Li 10.150536 9.182446 8.401787
Li 8.570477 8.371953 8.602303
Li 9.833282 9.745339 6.326181
Li 10.734688 10.406721 9.732984
Li 8.941878 8.555428 9.469943
Li 7.688591 10.019197 7.899266
8
 Atoms. Timestep: 830
Li 6.966470 8.213729 8.622469
Li 7.680451 8.490214 8.510982
Li 10.349260 9.376035 8.560639
Li 8.736233 8.529967 8.640827
Li 9.893831 9.801430 6.383678
Li 11.016025 10.420466 10.059628
Li 9.109387 8.781530 9.653715
Li 7.906235 10.196379 8.241142
8
 Atoms. Timestep: 840
Li 7.055224 8.283433 8.748371
Li 7.774690 8.570437 8.655257
Li 10.589343 9.586198 8.770167
Li 8.907160 8.755743 8.851656
Li 10.146689 9.992296 6.501307
Li 11.045604 10.706253 10.177614
Li 9.358621 8.888921 9.860601
Li 8.017112 10.255823 8.341615
8
 Atoms. Timestep: 850
Li 7.200645 8.534906 8.735556
Li 8.122649 8.748673 8.796337
Li 10.700922 9.640968 8.783122
Li 9.073060 9.031921 9.006650
Li 10.315822 10.215191 6.717236
Li 11.162698 10.870701 10.211535
Li 9.425945 8.784809 9.932164
Li 8.150702 10.418930 8.586790
8
 Atoms. Timestep: 860
Li 7.365434 8.722918 8.915472
Li 8.274969 8.897049 8.902047
Li 10.918532 9.889011 8.900914
Li 9.246353 9.237402 9.058324
Li 10.466754 10.309252 6.803403
Li 11.289720 10.862634 10.493455
Li 9.510226 9.001545 10.152704
Li 8.346554 10.593830 8.843861
8
 Atoms. Timestep: 870
Li 7.494847 8.837138 8.909006
Li 8.357969 9.002979 9.045649
Li 11.077241 10.108083 9.139853
Li 9.426646 9.495343 9.257170
Li 10.698173 10.488171 6.979242
Li 11.409400 11.034112 10.649078
Li 9.764612 9.074975 10.273272
Li 8.378113 10.713349 8.931344
8
 Atoms. Timestep: 880
Li 7.653405 9.166542 9.133153
Li 8.560288 9.204219 9.144392
Li 11.343408 10.249597 9.195881
Li 9.399921 9.601484 9.471544
Li 10.762838 10.579824 7.101976
Li 11.553110 11.186750 10.684272
Li 9.876233 9.192267 10.545259
Li 8.672223 10.844600 9.073818
8
 Atoms. Timestep: 890
Li 7.822547 9.250094 9.120370
Li 8.729712 9.368044 9.254573
Li 11.386799 10.391177 9.300032
Li 9.641691 9.819102 9.450006
Li 10.905185 10.742776 7.165531
Li 11.635310 11.260068 10.959889
Li 10.004380 9.420383 10.613262
Li 8.634457 10.899557 9.307961
8
 Atoms. Timestep: 900
Li 8.049514 9.377873 9.311186
Li 8.973704 9.555401 9.497703
Li 11.558805 10.603265 9.475951
Li 9.842657 10.004945 9.750225
Li 10.945658 10.939448 7.259991
Li 11.707543 11.385400 11.090165
Li 10.099567 9.420991 10.749623
Li 8.836524 11.056148 9.458514
8
 Atoms. Timestep: 910
Li 8.042085 9.675066 9.440372
Li 9.132157 9.715649 9.658898
Li 11.815845 10.750098 9.555635
Li 9.869882 10.283263 9.845623
Li 11.169733 11.077220 7.360837
Li 11.929898 11.534241 11.249884
Li 10.338042 9.427160 10.885480
Li 8.985463 11.195540 9.745546
8
 Atoms. Timestep: 920
Li 8.262492 9.820791 9.414849
Li 9.415027 9.871511 9.647553
Li 11.928966 11.030936 9.651835
Li 10.159278 10.522324 9.970828
Li 11.267015 11.223326 7.556979
Li 11.974363 11.654450 11.365695
Li 10.497052 9.635987 11.100106
Li 9.066409 11.420722 9.766374
8
 Atoms. Timestep: 930
Li 8.423970 9.946415 9.625367
Li 9.506123 9.832272 9.854141
Li 12.149542 11.166439 9.857707
Li 10.250266 10.663717 10.061375
Li 11.404122 11.402754 7.767539
Li 12.137369 11.767336 11.630309
Li 10.660504 9.798344 11.135284
Li 9.185912 11.384872 10.018581
8
 Atoms. Timestep: 940
Li 8.559533 10.128881 9.632117
Li 9.734514 10.227418 9.986458
Li 12.228845 11.225513 9.950074
Li 10.386583 10.916882 10.289850
Li 11.528675 11.564936 7.756941
Li 12.174898 11.976289 11.690023
Li 10.745546 9.780925 11.329583
Li 9.333915 11.519424 10.144687
8
 Atoms. Timestep: 950
Li 8.750162 10.302835 9.831388
Li 9.759299 10.342241 10.160111
Li 12.412293 11.412782 10.180691
Li 10.478991 11.108432 10.352974
Li 11.574294 11.674722 7.944508
Li 12.346237 12.062971 11.935333
Li 10.905539 9.891778 11.477362
Li 9.449323 11.657561 10.337614
8
 Atoms. Timestep: 960
Li 8.868214 10.526893 9.948768
Li 10.024501 10.526612 10.226181
Li 12.675603 11.616352 10.394082
Li 10.677459 11.354426 10.438645
Li 11.829592 11.766159 8.001222
Li 12.551308 12.203516 12.025194
Li 11.040700 10.046253 11.694569
Li 9.554000 11.844685 10.558830
8
 Atoms. Timestep: 970
Li 8.929128 10.649238 9.998066
Li 10.166083 10.614771 10.346717
Li 12.776756 11.785829 10.377917
Li 10.800822 11.613726 10.584256
Li 11.970929 11.938205 8.219286
Li 12.591905 12.329939 12.164722
Li 11.166801 10.027006 11.785990
Li 9.695957 11.848887 10.785825
8
 Atoms. Timestep: 980
Li 9.120214 10.837207 10.152236
Li 10.371871 10.734126 10.465167
Li 12.996282 11.896642 10.476450
Li 10.839289 11.779997 10.735812
Li 11.954923 12.089906 8.337082
Li 12.714696 12.433987 12.363978
Li 11.322344 10.200751 11.889758
Li 9.839616 11.949232 10.905069
8
 Atoms. Timestep: 990
Li 9.348138 11.051901 10.197295
Li 10.493926 10.911041 10.677884
Li 13.098448 12.077270 10.647221
Li 11.128352 11.898041 10.887545
Li 12.262537 12.210425 8.403824
Li 12.948881 12.541603 12.455569
Li 11.515627 10.312951 12.145701
Li 9.888338 12.168594 11.035241
8
 Atoms. Timestep: 1000
Li 9.397365 11.131281 10.345136
Li 10.800908 11.008745 10.825197
Li 13.316845 12.156712 10.729569
Li 11.202748 12.098625 11.031238
Li 12.342764 12.326395 8.525276
Li 12.994703 12.618474 12.698064
Li 11.642865 10.432679 12.182978
Li 10.021705 12.332480 11.245904
8
 Atoms. Timestep: 1010
Li 9.475481 11.396406 10.445232
Li 10.817130 11.105695 10.895443
Li 13.462622 12.389518 10.819417
Li 11.363890 12.232404 11.151738
Li 12.509943 12.510269 8.696352
Li 13.027825 12.773524 12.727456
Li 11.794366 10.457023 12.420872
Li 10.251710 12.349225 11.468721
8
 Atoms. Timestep: 1020
Li 9.643928 11.526315 10.536958
Li 10.951795 11.209109 11.052755
Li 13.622802 12.484621 10.949594
Li 11.491607 12.428087 11.214580
Li 12.501165 12.694363 8.790275
Li 13.242545 12.953817 12.964425
Li 11.840841 10.671761 12.582100
Li 10.331531 12.409036 11.509016
8
 Atoms. Timestep: 1030
Li 9.672972 11.707898 10.657180
Li 11.222865 11.408438 11.172737
Li 13.708950 12.545455 11.101443
Li 11.510689 12.738696 11.314420
Li 12.711217 12.735539 8.883576
Li 13.250595 12.957084 13.060955
Li 12.123724 10.742947 12.730199
Li 10.444583 12.585311 11.727769
8
 Atoms. Timestep: 1040
Li 9.917270 11.842493 10.678821
Li 11.374184 11.584666 11.188402
Li 13.869680 12.749493 11.324499
Li 11.688270 12.822194 11.485706
Li 12.810289 12.966479 8.955911
Li 13.359695 13.126585 13.179611
Li 12.154407 10.774634 12.683118
Li 10.543403 12.699216 11.834090
8
 Atoms. Timestep: 1050
Li 10.032517 11.944585 10.817371
Li 11.427399 11.552271 11.352592
Li 14.055428 13.044551 11.338733
Li 11.814600 13.070375 11.531808
Li 12.860652 13.060778 9.100304
Li 13.528863 13.228700 13.377720
Li 12.252599 10.930432 12.896552
Li 10.642140 12.833180 12.102353
8
 Atoms. Timestep: 1060
Li 9.984224 12.137001 10.850457
Li 11.751986 11.750353 11.402136
Li 14.282867 13.126903 11.531469
Li 11.949629 13.318917 11.734312
Li 13.009925 13.121264 9.235200
Li 13.650731 13.316550 13.387525
Li 12.461704 10.904227 13.055586
Li 10.756635 12.920433 12.296351
8
 Atoms. Timestep: 1070
Li 10.325507 12.216764 10.885084
Li 11.817132 11.980734 11.547701
Li 14.321599 13.266376 11.467751
Li 12.087507 13.399242 11.914723
Li 13.161970 13.255561 9.346903
Li 13.726261 13.513536 13.622118
Li 12.509828 11.065643 13.158778
Li 10.848637 13.042300 12.428721
8
 Atoms. Timestep: 1080
Li 10.373093 12.389170 11.123370
Li 11.973281 12.049614 11.579337
Li 14.563443 13.430746 11.612278
Li 12.159152 13.615000 12.002780
Li 13.279678 13.333093 9.447369
Li 13.775430 13.559675 13.686770
Li 12.680910 11.190324 13.306473
Li 10.941874 13.046722 12.528369
8
 Atoms. Timestep: 1090
Li 10.503491 12.582575 11.113591
Li 12.210070 12.180159 11.730659
Li 14.541484 13.632403 11.930058
Li 12.262172 13.642947 12.049477
Li 13.364626 13.514964 9.526578
Li 13.936618 13.683188 13.812384
Li 12.870019 11.158300 13.328506
Li 11.064547 13.313454 12.733731
8
 Atoms. Timestep: 1100
Li 10.552478 12.693442 11.293347
Li 12.227835 12.263045 11.852056
Li 14.754828 13.633852 11.853684
Li 12.446449 13.939414 12.236839
Li 13.528040 13.676924 9.616601
Li 14.198196 13.812926 13.969852