9
 Atoms. Timestep: 120
Li -1.35653 -0.70756 1.73518
Li -2.58586 -0.126479 0.320071
Li -0.274976 -0.163313 -0.651841
Li 0.76821 -2.71872 0.664819
Li 2.05663 -0.129519 -1.39533
Li 1.35876 1.57871 0.193148
Li -0.621095 1.25879 0.787523
Li 0.448416 1.64868 -1.43422
Li 1.28083 -0.0401784 1.52726
9
 Atoms. Timestep: 140
Li -1.26559 0.053873 2.66932
Li -2.83814 -0.791724 0.118628
Li -0.798361 0.275944 -1.7045
Li 1.05706 -2.17992 0.433639
Li 1.44812 -1.12181 -2.29113
Li 1.17014 -0.229361 -0.120319
Li -1.50575 1.59443 0.897698
Li 1.49695 1.81049 -2.6557
Li 0.749214 -0.131252 3.26861
9
 Atoms. Timestep: 160
Li -2.36845 1.17962 2.79325
Li -2.3264 -1.77456 0.788541
Li -1.30153 1.74518 -2.4766
Li 1.46858 -3.40647 0.959564
Li 0.736452 -2.26527 -3.42575
Li -0.279895 -0.908663 -1.63468
Li -1.88033 1.46243 0.245959
Li 3.10705 1.46326 -2.68602
Li 0.568235 0.271564 4.75561
9
 Atoms. Timestep: 180
Li -3.57847 2.27993 1.60496
Li -1.1121 -2.47102 2.19509
Li -0.972827 3.85602 -1.99938
Li 1.70221 -4.1419 1.32012
Li 0.32427 -2.73048 -3.96384
Li -2.73125 -1.9178 -2.86536
Li -1.2328 0.394199 -0.857158
Li 4.20845 0.56735 -1.14898
Li 0.271104 1.21617 4.42233
9
 Atoms. Timestep: 200
Li -4.09025 2.64464 -0.139019
Li 0.0056184 -2.43208 3.41442
Li -0.0301026 5.22373 -0.586649
Li 1.57696 -3.50244 1.0999
Li 0.460027 -2.17924 -3.49621
Li -4.52288 -3.03246 -2.8835
Li 0.0082909 -0.913551 -1.65838
Li 4.08144 -0.28694 0.945841
Li 0.0433337 2.0837 2.48494
9
 Atoms. Timestep: 220
Li -3.5695 2.03619 -1.29286
Li 0.293536 -1.68495 3.6447
Li 0.907794 4.95198 0.834935
Li 1.25927 -2.08879 0.646058
Li 1.27417 -1.5865 -3.60166
Li -4.48048 -3.52563 -1.682
Li 0.728747 -0.804544 -0.557394
Li 2.80723 -0.540875 2.2238
Li 0.0352239 2.30593 0.214047
9
 Atoms. Timestep: 240
Li -2.3554 0.853877 -1.09883
Li -0.492466 -0.740778 2.76377
Li 1.22575 3.21797 1.33244
Li 1.55931 -2.40769 1.68888
Li 2.09914 -0.963451 -3.46994
Li -2.63335 -3.07408 -0.0493934
Li 0.20967 0.256359 -0.473702
Li 1.30795 0.109845 1.87712
Li -0.0020383 3.2166 -0.93659
9
 Atoms. Timestep: 260
Li -2.12124 0.194043 -0.0110194
Li -2.00965 -0.379945 1.74739
Li 0.893099 2.9664 0.525746
Li 1.57698 -2.65579 1.84949
Li 2.30616 -0.481388 -2.65237
Li -0.195966 -1.99513 0.947701
Li 0.0310529 -1.11274 -1.02353
Li 1.03507 -0.0757953 0.872751
Li -0.0856676 4.44134 -0.25212
9
 Atoms. Timestep: 280
Li -3.28347 1.15739 -0.770843
Li -2.87458 -1.33621 3.22421
Li 1.17273 2.63049 -0.560372
Li 2.19233 -3.01585 1.54688
Li 1.76015 -0.456384 -1.6894
Li -0.3717 -1.49696 0.424777
Li -0.142599 -2.57742 -2.5905
Li 2.93695 0.14946 0.311649
Li -0.934668 5.02228 1.40172
9
 Atoms. Timestep: 300
Li -3.94009 2.125 -0.537453
Li -2.68003 -2.30584 3.85074
Li 0.848149 2.08433 -1.59914
Li 2.38088 -2.90567 0.646473
Li 0.801465 -0.914487 -1.24687
Li -1.99518 -1.57468 -1.13556
Li -0.435159 -2.32623 -2.71911
Li 4.76325 1.05974 -0.656486
Li -1.10878 3.2951 3.37692
9
 Atoms. Timestep: 320
Li -3.66208 2.45858 0.546525
Li -1.55734 -2.64817 3.20681
Li -0.0553011 1.95216 -1.96349
Li 1.86794 -2.352 -0.346563
Li 0.824995 -0.831439 -0.688839
Li -3.63526 -1.95751 -2.52992
Li -1.30712 -1.1465 -2.35541
Li 4.99461 1.68811 -1.38854
Li -0.308133 0.129133 4.43269
9
 Atoms. Timestep: 340
Li -2.63254 1.94003 1.76835
Li -0.251562 -2.14385 1.70029
Li -0.941867 2.33422 -1.41498
Li 1.7414 -2.75872 -0.494114
Li 0.76789 0.52542 -1.01069
Li -4.1765 -2.43142 -2.90352
Li -1.93517 0.463504 -1.33425
Li 3.48177 1.62221 -1.40488
Li 0.950193 -2.3932 3.89212
9
 Atoms. Timestep: 360
Li -1.52365 0.909502 2.34298
Li 0.250683 -1.00246 0.384448
Li -0.917003 3.63283 -0.390594
Li 1.36719 -2.85196 -0.121171
Li 0.0500746 0.473035 -2.50481
Li -3.11121 -2.67679 -2.0435
Li -1.84148 1.14292 0.355635
Li 2.13082 1.21067 -0.450439
Li 1.85596 -2.616 2.13673
9
 Atoms. Timestep: 380
Li -0.871583 -0.182581 2.89143
Li -0.195138 -0.140442 0.103774
Li -0.198995 4.56459 0.473699
Li 0.85293 -3.06216 -0.259096
Li -0.865013 -0.972697 -4.22998
Li -1.14027 -2.53104 -0.515148
Li -1.41121 1.46254 0.721828
Li 1.7897 1.31958 0.755398
Li 2.14926 -0.673133 1.10601
9
 Atoms. Timestep: 400
Li -1.24073 -0.482144 2.31613
Li 0.0166255 -0.294118 0.529856
Li -0.021941 4.96182 0.645312
Li 1.9399 -3.34485 -0.266734
Li -0.450882 -2.55372 -4.76893
Li -1.49162 -2.47609 0.690068
Li -1.35581 2.09067 0.548193
Li 2.05535 3.44575 0.551801
Li 1.88525 -0.525558 1.69049
9
 Atoms. Timestep: 420
Li -2.90922 0.264336 1.10507
Li -0.288049 -0.21854 1.06024
Li -1.20005 5.25392 0.0139335
Li 2.89113 -2.92618 0.162892
Li 1.01961 -3.23245 -3.77301
Li -2.7883 -2.94478 0.791145
Li -0.645567 1.43251 -0.266805
Li 3.84391 2.35571 -0.204758
Li 1.21393 0.669163 2.90352
9
 Atoms. Timestep: 440
Li -4.57481 1.58276 -0.189083
Li -1.2427 -1.15337 1.89594
Li -1.61323 3.88608 -1.0021
Li 2.70481 -1.93133 0.768078
Li 2.58146 -2.56434 -1.89578
Li -3.38633 -2.847 -0.298826
Li 0.202429 0.11645 -1.34455
Li 4.6398 0.13481 -1.02063
Li 0.333916 2.16795 3.79856
9
 Atoms. Timestep: 460
Li -4.88575 2.62229 -0.859925
Li -2.21062 -2.22669 2.75103
Li -0.993073 1.75785 -1.73555
Li 1.4287 -0.963016 1.32209
Li 2.28967 -1.63104 -0.331512
Li -2.89445 -2.24699 -1.86072
Li 0.700438 -1.24305 -1.81006
Li 4.92181 -1.16732 -1.5686
Li -0.517037 2.96311 3.4971
9
 Atoms. Timestep: 480
Li -3.64208 2.70213 -0.468406
Li -2.55552 -2.72346 3.05471
Li 0.249496 0.291633 -1.7024
Li -0.45261 -0.399832 2.13264
Li 1.03416 -1.38648 -0.0143312
Li -1.65464 -1.53823 -2.87798
Li 0.037827 -1.76648 -2.04295
Li 4.6679 -0.639411 -1.55415
Li -0.780052 2.5345 2.1994
9
 Atoms. Timestep: 500
Li -1.8891 1.84383 0.647574
Li -2.0772 -2.36459 2.62971
Li 1.29057 1.07032 -1.09975
Li -1.27635 -0.858497 1.8518
Li 0.464756 -0.932957 0.164803
Li -1.87006 -0.899675 -3.50466
Li -0.0826901 -2.12714 -1.6968
Li 2.94518 0.708865 -0.704226
Li -0.0535889 1.09678 0.834284
9
 Atoms. Timestep: 520
Li -1.77015 0.984655 1.51991
Li -1.70482 -2.51301 2.38918
Li -0.547589 3.78657 -1.08685
Li -0.29792 -0.880895 0.337995
Li 1.55284 -2.27356 -0.66421
Li -2.22297 -0.962198 -2.66227
Li -0.863998 -1.86236 -1.84982
Li 3.47484 1.62662 0.734493
Li 1.49985 1.04203 1.61277
9
 Atoms. Timestep: 540
Li -2.15875 0.272419 1.89602
Li -1.11387 -2.02114 1.91816
Li -2.13099 5.85996 -0.828228
Li 1.68299 -1.25018 -0.584183
Li 3.30678 -3.31335 -2.36142
Li -3.76645 -0.80055 -1.56137
Li -0.661662 -1.76473 -1.31459
Li 4.57517 2.15091 1.02605
Li 1.08156 1.24754 3.36813
9
 Atoms. Timestep: 560
Li -2.81394 0.189652 1.52572
Li -0.587482 -1.14078 1.47787
Li -2.33878 5.87704 -0.403276
Li 3.69752 -1.93848 -0.510785
Li 3.64725 -2.94934 -4.09733
Li -4.12418 -1.38867 -0.177394
Li -0.460559 -0.783301 -0.469948
Li 4.20598 1.67741 0.449432
Li 0.199029 1.35322 4.20612
9
 Atoms. Timestep: 580
Li -3.296 0.794451 0.664429
Li -0.532757 -0.627818 2.21157
Li -1.03712 3.82989 -0.0908002
Li 4.04435 -2.69681 0.179005
Li 2.35731 -1.42511 -4.73454
Li -2.91431 -2.45054 0.640637
Li -0.113934 0.928228 -0.464576
Li 2.61114 0.515909 -0.616319
Li -0.566375 1.29074 3.57908
9
 Atoms. Timestep: 600
Li -3.25271 1.64703 -0.127053
Li -0.958306 -1.14682 2.71276
Li 0.320684 3.45529 0.688088
Li 2.49904 -3.02628 1.03288
Li 0.285849 0.257472 -3.85763
Li -0.929527 -3.2763 0.363891
Li -0.190585 0.447185 -1.05972
Li 1.7244 -1.32287 -1.7449
Li -0.727207 1.61852 2.07052
9
 Atoms. Timestep: 620
Li -2.71727 2.17705 -0.33416
Li -1.57968 -2.12318 2.61147
Li 1.12866 4.03359 1.08939
Li 0.186009 -2.66716 1.64057
Li -1.15235 1.15834 -2.36746
Li 0.42495 -3.35942 -0.973571
Li -1.56377 -0.572152 -0.882553
Li 2.72647 -3.16218 -2.38998
Li -0.201515 1.88293 0.584173
9
 Atoms. Timestep: 640
Li -2.09883 2.07525 0.239358
Li -3.14268 -2.38591 2.67684
Li 1.20023 3.8047 0.401414
Li -0.200729 -2.03707 1.0626
Li -0.944315 0.806857 -1.48948
Li 0.226488 -2.67282 -2.57335
Li -2.21532 -1.51374 0.113901
Li 3.476 -2.51191 -1.66341
Li 0.686708 1.57924 0.0188193
9
 Atoms. Timestep: 660
Li -1.82261 1.43659 1.25472
Li -3.80179 -1.92722 2.42134
Li 0.480945 3.05711 -0.918287
Li 0.842699 -1.60427 0.120988
Li 0.601022 -0.834398 -1.5874
Li -1.25836 -1.60213 -3.15055
Li -1.79318 -1.40457 0.722522
Li 3.47626 0.196685 -0.044566
Li 1.42513 0.809858 0.809932
9
 Atoms. Timestep: 680
Li -2.01728 0.688996 1.97654
Li -2.80817 -1.10333 1.83976
Li -0.578828 2.16 -2.0164
Li 2.39424 -2.27587 0.819154
Li 2.26584 -1.90656 -3.67196
Li -3.05836 -0.860474 -2.34359
Li -0.435492 -0.40592 0.544414
Li 2.97581 3.20922 1.29466
Li 1.23666 0.16423 2.50738
9
 Atoms. Timestep: 700
Li -2.19989 1.67313 2.18601
Li -1.21644 -1.74796 1.10508
Li -1.28052 1.63165 -2.16228
Li 3.13094 -2.80357 1.27755
Li 3.19987 -2.49344 -4.95255
Li -3.97914 -0.921704 -0.669733
Li 1.06989 0.760269 -0.341685
Li 2.13109 4.54388 1.55396
Li 0.407831 0.118187 3.88729
9
 Atoms. Timestep: 720
Li -2.53046 2.55358 1.50802
Li 0.286011 -2.36342 0.852143
Li -1.16234 1.81921 -1.26129
Li 2.57277 -2.83422 1.18152
Li 2.79588 -2.21835 -4.57723
Li -3.41797 -1.74413 0.770914
Li 1.65085 1.44664 -1.26043
Li 1.42222 3.30976 0.59863
Li -0.442644 0.715832 4.00669
9
 Atoms. Timestep: 740
Li -2.86499 2.51924 0.350526
Li -0.410418 -1.957 1.19287
Li -0.445718 2.6355 0.045448
Li 2.51631 -2.62249 0.703155
Li 1.32233 -1.26852 -2.79613
Li -1.99686 -2.86847 1.02731
Li 1.0888 0.660098 -2.72128
Li 1.31381 0.83314 0.20717
Li -0.754951 1.56449 2.79159
9
 Atoms. Timestep: 760
Li -3.02405 1.59703 -0.5123
Li -0.172201 -0.115625 2.10322
Li 0.468119 3.9146 0.563765
Li 2.58658 -2.88723 0.0220784
Li -0.116252 -1.81051 -0.490551
Li -2.63117 -4.40046 -0.172162
Li -0.438381 0.602809 -3.84818
Li 1.76624 -0.723068 0.49525
Li -0.46891 1.79779 1.3371
9
 Atoms. Timestep: 780
Li -2.84276 0.390732 -0.535847
Li -0.636016 0.384886 3.25573
Li 1.27544 4.90815 -0.0710175
Li 2.50945 -4.39966 -0.585841
Li -0.767536 -2.195 0.553744
Li -2.6788 -4.41564 -1.92761
Li -1.90816 0.390443 -2.77807
Li 1.93267 0.457561 0.480588
Li 0.0741695 1.59854 0.373963
9
 Atoms. Timestep: 800
Li -2.78327 -0.439743 1.39245
Li -1.50112 -0.361677 3.61356
Li 1.22026 4.46581 -1.03274
Li 1.5466 -4.36654 -0.524123
Li -0.155268 -1.90652 -0.361283
Li -2.10216 -2.9018 -3.08438
Li -1.99131 0.0732998 -1.24706
Li 2.93956 1.51116 -0.00891865
Li 0.220978 1.41453 0.333768
9
 Atoms. Timestep: 820
Li -3.79474 -0.0553792 2.38619
Li -1.1751 -2.01713 4.09414
Li 0.34293 2.87945 -1.68833
Li 0.334052 -2.82333 0.168625
Li 1.31818 -1.13177 -2.6341
Li -1.28137 -0.85356 -2.88298
Li -0.787984 -0.190703 0.0913487
Li 3.81273 1.90957 -0.675336
Li 0.219314 1.11903 1.37599
9
 Atoms. Timestep: 840
Li -4.52435 1.28592 1.66166
Li -0.347106 -3.39122 3.7901
Li -0.537813 2.05063 -1.45071
Li -0.151437 -2.31918 1.08776
Li 2.69101 -0.382986 -4.76424
Li -1.00148 -0.476034 -1.6163
Li 0.2958 0.884467 0.676568
Li 3.71113 1.46914 -1.09324
Li 0.556713 1.15672 3.1784
9
 Atoms. Timestep: 860
Li -3.9358 2.54117 0.348159
Li -0.19533 -3.79116 2.83711
Li -0.647121 3.67821 -0.40413
Li 0.411241 -2.44518 1.03872
Li 3.05645 -0.157202 -5.3568
Li -1.72133 -3.09432 -0.295394
Li 0.890816 2.39458 0.441678
Li 2.70515 0.480665 -0.988613
Li 0.826837 1.26129 4.35511
9
 Atoms. Timestep: 880
Li -2.41619 2.88991 -0.691954
Li -0.910061 -3.29372 2.34721
Li -0.620611 4.89339 0.333937
Li 1.51502 -2.08978 -0.325798
Li 2.17927 -0.601698 -4.02939
Li -2.44903 -5.04408 0.541111
Li 0.951452 2.1326 -0.14708
Li 1.57702 0.0772857 -0.572469
Li 0.801985 1.25976 3.96836
9
 Atoms. Timestep: 900
Li -2.10615 2.28176 -1.10983
Li -1.85544 -1.5268 1.57115
Li -0.225611 4.69273 0.469214
Li 2.0137 -3.47682 -0.726689
Li 0.619076 -1.44872 -1.68668
Li -2.69963 -5.04729 0.353094
Li 0.4881 2.24553 -0.215411
Li 2.17662 -0.103781 -0.751679
Li 0.49926 1.15354 2.27581
9
 Atoms. Timestep: 920
Li -4.15522 1.2397 -0.920502
Li -2.41412 0.347935 1.01781
Li 0.2636 3.25124 -0.0709985
Li 1.95385 -3.92496 -0.36407
Li -0.681756 -2.2207 0.0478136
Li -2.31855 -3.11219 -0.737087
Li 1.7118 1.63004 -0.477232
Li 3.24872 -0.270108 -0.612408
Li -0.245514 0.520961 1.17515
9
 Atoms. Timestep: 940
Li -5.12759 0.147813 0.366504
Li -2.6163 1.15327 1.0167
Li 0.32497 1.7125 -0.869536
Li 1.38743 -3.14786 0.518306
Li -0.271835 -2.13324 0.487847
Li -2.06607 -0.709556 -2.35248
Li 1.91499 0.370304 -1.49454
Li 3.98339 -0.0694473 -0.187429
Li -0.528819 -0.168494 1.31047
9
 Atoms. Timestep: 960
Li -4.39292 -0.279421 1.90385
Li -2.14443 0.397466 1.57255
Li -0.177782 1.13989 -1.33573
Li 1.95336 -2.44214 1.54479
Li -0.415648 -1.03262 -0.969215
Li -1.66562 0.768126 -3.15076
Li 1.00861 -1.14214 -2.35865
Li 3.91837 0.396261 0.279356
Li -0.0283447 0.24232 2.07403
9
 Atoms. Timestep: 980
Li -2.90566 0.248755 2.80571
Li -0.890965 -1.48441 2.1611
Li -0.448463 2.05679 -1.10174
Li 2.21336 -1.60985 1.89673
Li -1.5518 -0.671076 -1.47825
Li -1.44311 0.45953 -2.94136
Li 1.04404 -1.69274 -3.72819
Li 2.8117 1.01075 0.367135
Li 1.00406 1.23309 2.86652
9
 Atoms. Timestep: 1000
Li -1.514 1.42673 2.46101
Li 0.434643 -3.33215 2.479
Li -0.311626 3.58052 -0.373469
Li 1.78293 -1.05646 1.28641
Li -1.00581 -1.94223 -1.06792
Li -1.47548 -0.372076 -3.15904
Li 0.215669 -1.12907 -2.90964
Li 1.39013 1.37099 0.0240435
Li 1.65002 2.13204 3.0729
9
 Atoms. Timestep: 1020
Li -0.780499 2.42729 1.00452
Li 0.638581 -3.87449 2.4245
Li 0.0074833 4.53521 0.223108
Li 1.06375 -1.29713 0.350824
Li 0.747501 -3.15043 -1.17438
Li -2.90956 -1.81118 -2.25982
Li 0.295875 -0.174377 -0.957911
Li 0.664898 1.69127 -0.33715
Li 1.45601 2.34696 2.55233
9
 Atoms. Timestep: 1040
Li -1.96729 2.69019 -0.12378
Li -0.550348 -2.85552 2.20635
Li 0.301887 4.48491 0.301574
Li 1.37767 -3.00975 0.871715
Li 2.66602 -3.33162 -1.996
Li -3.67783 -3.39693 -0.585227
Li -1.01099 0.0203619 -1.16926
Li 2.18615 3.24754 -0.294928
Li 0.553749 1.74043 1.67042
9
 Atoms. Timestep: 1060
Li -3.72086 1.94356 -0.56407
Li -2.59418 -1.0349 2.20891
Li 0.262659 3.47265 -0.137995
Li 1.94485 -3.90799 0.704029
Li 3.59104 -2.10888 -3.10327
Li -3.16476 -4.11669 0.797331
Li -1.86906 0.226946 -0.880991
Li 4.12819 2.90435 -0.429956
Li -0.467191 0.715278 1.00615
9
 Atoms. Timestep: 1080
Li -4.69587 0.702635 -0.131285
Li -3.75644 0.573142 2.01158
Li 0.0242876 1.96861 -0.859174
Li 1.99603 -3.58534 0.358447
Li 2.92108 -0.282587 -3.76408
Li -1.71179 -3.50016 0.983836
Li -1.95984 0.273073 -0.632536
Li 4.88876 1.0731 -0.478164
Li -0.667724 -0.0347775 1.33498
9
 Atoms. Timestep: 1100
Li -4.39671 -0.317495 0.599849
Li -3.12145 1.00017 2.02913
Li 0.017866 1.15279 -1.49006
Li 1.5424 -2.26278 0.0633344
Li 1.10116 0.949807 -3.54679
Li -0.317578 -1.94807 -0.144844
Li -1.51955 -0.0206341 -0.491838
Li 3.97388 -1.0414 -0.4092
Li 0.0817949 -0.0513031 2.44818
9
 Atoms. Timestep: 1120
Li -3.09266 -0.544602 1.19421
Li -1.07905 0.0454028 2.2718
Li 0.288917 1.87059 -0.675276
Li 0.616243 -1.10759 0.653867
Li -0.438226 0.665712 -3.69867
Li -0.151765 -1.40042 -2.31037
Li -1.75629 0.47851 0.142961
Li 3.45677 -1.9594 -0.672609
Li 1.01966 0.682779 3.23952
9
 Atoms. Timestep: 1140
Li -2.04066 -0.125606 1.89052
Li 0.264063 -1.31577 4.03555
Li 0.334847 3.25423 0.712618
Li -0.166109 -1.13771 -0.0702893
Li -1.06779 -0.0799867 -3.82665
Li -0.584708 -2.53414 -3.5495
Li -1.01262 1.5282 -0.0570056
Li 3.23976 -1.14296 -0.985046
Li 1.58933 1.71592 3.22105
9
 Atoms. Timestep: 1160
Li -1.36697 1.06437 1.90838
Li 0.345415 -2.50176 5.08573
Li 0.244916 4.39541 1.28662
Li 0.179535 -1.97074 -1.15095
Li -0.448891 -0.782816 -3.27276
Li -1.55004 -4.12767 -2.88923
Li 0.12683 1.55701 -0.57986
Li 2.42667 0.83173 -0.845396
Li 1.37319 2.35158 2.38966
9
 Atoms. Timestep: 1180
Li -1.51151 2.30627 1.16392
Li -0.627888 -2.92883 4.05531
Li -0.0394609 4.46521 0.629744
Li 1.24676 -3.13373 -0.830309
Li 1.14002 -1.45701 -2.52607
Li -2.62495 -4.37185 -1.00836
Li -0.161891 0.526141 -0.974609
Li 2.67811 2.72015 -0.348546
Li 0.584673 2.14384 1.30269
9
 Atoms. Timestep: 1200
Li -2.75067 2.78394 0.132648
Li -1.97465 -2.29278 1.66386
Li -0.309369 3.46169 -0.837888
Li 2.32846 -3.93157 0.725954
Li 2.65623 -1.5934 -2.12628
Li -3.14549 -3.14494 0.818141
Li -1.07236 -0.878072 -0.992427
Li 3.2185 3.28927 0.187034
Li 0.0942889 1.1902 0.705736
9
 Atoms. Timestep: 1220
Li -3.8771 2.18512 -0.478039
Li -1.76922 -0.283141 1.21828
Li -0.376542 2.00364 -2.13654
Li 2.64035 -3.49226 2.08233
Li 3.18425 -1.45829 -1.9236
Li -4.68613 -2.65174 0.0587809
Li -1.47592 -1.71627 -0.788927
Li 3.17315 2.11437 0.402832
Li 0.677972 0.86873 0.716086
9
 Atoms. Timestep: 1240
Li -4.10339 0.914067 -0.27512
Li -2.91964 -0.230826 1.92968
Li -0.221163 1.02103 -2.39951
Li 1.98212 -2.1093 2.35199
Li 2.38389 -1.13936 -2.04999
Li -4.34697 -1.83702 -1.44246
Li -1.11685 -1.47806 -0.538671
Li 4.34957 0.13841 -0.285456
Li 1.03078 1.90862 1.53302
9
 Atoms. Timestep: 1260
Li -3.29564 -0.18373 0.571232
Li -2.9706 -0.923833 2.65461
Li 0.0518622 1.19525 -1.48122
Li 0.794112 -0.692447 1.37003
Li 0.795167 -0.859698 -2.42386
Li -2.28928 -1.18384 -2.65913
Li -0.259493 -0.270461 -0.180748
Li 5.16183 -1.44704 -1.2322
Li -0.00896857 2.34877 2.88605
9
 Atoms. Timestep: 1280
Li -2.01424 -0.288235 1.26769
Li -1.86288 -2.00269 3.15783
Li 0.541872 3.70794 -0.854445
Li 1.04324 -0.789855 1.66337
Li 1.64674 -0.506721 -2.46749
Li -2.01791 -1.47653 -3.17032
Li -0.973793 0.488402 -0.922945
Li 4.11932 -1.66544 -1.56372
Li -0.791269 1.96382 3.63476
9
 Atoms. Timestep: 1300
Li -1.08741 0.586103 1.49712
Li -0.356885 -2.70322 2.94411
Li 0.744953 5.90969 -0.246468
Li 1.56064 -1.82641 1.47979
Li 2.70293 0.695365 -3.21069
Li -3.04497 -2.4158 -2.53653
Li -1.55259 0.726361 -1.45472
Li 2.88048 -1.42197 -0.0835029
Li -0.79647 1.03023 3.34031
9
 Atoms. Timestep: 1320
Li -1.25969 1.64339 0.280516
Li -0.384604 -2.62421 2.90754
Li 0.435875 6.01875 0.144504
Li 1.74076 -3.51882 0.752153
Li 2.18033 1.31217 -4.05913
Li -3.20429 -3.13174 -0.91389
Li -1.33425 0.480002 -1.35492
Li 2.85471 0.149325 0.87924
Li 0.140716 0.352015 3.17951
9
 Atoms. Timestep: 1340
Li -2.24242 2.72654 -0.189699
Li -1.79653 -1.7732 2.96767
Li -0.180762 3.97234 0.0635484
Li 2.11129 -4.34915 -0.707888
Li 0.991892 0.294925 -3.83596
Li -2.39533 -3.15772 0.630524
Li -0.483699 -0.412273 -1.1538
Li 2.72289 2.20325 0.848166
Li 1.24813 0.166441 2.32813
9
 Atoms. Timestep: 1360
Li -3.49098 2.78621 -0.0152108
Li -2.85495 -0.633953 2.35055
Li -0.60756 1.13876 -0.425823
Li 1.85664 -3.66915 -1.41432
Li -0.081474 -1.68417 -2.70858
Li -1.14743 -2.49256 1.06975
Li 0.471085 -1.03771 -0.464874
Li 2.33202 3.21584 0.0683392
Li 1.77841 0.593735 1.24536
9
 Atoms. Timestep: 1380
Li -4.12519 1.77774 0.663875
Li -2.86735 0.0416528 1.45879
Li -0.84323 -0.395372 -1.09998
Li 1.42535 -2.16411 -1.01461
Li -0.580662 -3.32923 -1.56141
Li -0.719223 -1.85889 0.366273
Li 1.51057 -0.716245 0.373186
Li 1.94838 2.5527 -0.96886
Li 1.38964 1.36383 0.678599
9
 Atoms. Timestep: 1400
Li -4.00234 0.643619 1.32708
Li -1.53238 -0.447465 0.957934
Li -0.721826 0.651068 -1.87475
Li 1.29867 -1.49562 -0.415214
Li -0.27488 -3.72638 -1.22107
Li -1.58122 -2.00806 -0.517575
Li 2.16184 0.588683 1.33663
Li 1.92146 0.827126 -1.85558
Li 0.0822023 2.41942 1.31285
9
 Atoms. Timestep: 1420
Li -3.07046 -0.0213429 1.59424
Li -0.404688 -1.40255 1.54412
Li -0.149877 3.12427 -1.85645
Li 1.61418 -1.26608 0.462673
Li 1.06977 -2.65603 -1.78156
Li -2.63661 -2.27102 -1.71569
Li 1.25968 1.356 1.16862
Li 2.18929 -0.997738 -1.76423
Li -1.1215 2.76922 2.41127
9
 Atoms. Timestep: 1440
Li -1.7808 0.0919906 1.31454
Li -1.05728 -2.22282 2.99994
Li 0.494863 5.32256 -0.994717
Li 2.77134 -1.69394 0.95157
Li 1.08581 -2.41046 -3.08566
Li -3.09692 -2.41251 -2.4602
Li -0.679021 1.25631 -0.0261613
Li 4.01024 0.0927046 -0.647449
Li -1.33568 2.01693 3.2154
9
 Atoms. Timestep: 1460
Li -1.22554 0.525374 1.17929
Li -1.83831 -2.46775 3.73768
Li 0.789026 5.81103 0.139216
Li 2.81606 -2.39982 1.23697
Li 0.892852 -1.67697 -4.02718
Li -2.65771 -2.33837 -2.26041
Li -2.14439 0.715911 -2.01053
Li 5.03375 1.89568 0.628999
Li -0.415238 0.684247 3.25012
9
 Atoms. Timestep: 1480
Li -1.6192 1.25718 0.717848
Li -2.23819 -1.97547 3.27667
Li 0.541945 4.27912 0.801201
Li 1.77664 -2.87135 0.994913
Li 0.873511 -0.621376 -3.91722
Li -1.60991 -2.0979 -1.25116
Li -2.37776 -0.192514 -3.07245
Li 4.28675 2.86162 1.29319
Li 1.08545 -0.339223 2.64639
9
 Atoms. Timestep: 1500
Li -2.60528 1.919 0.275968
Li -1.99535 -1.07413 1.92315
Li -0.0774437 1.73718 0.561059
Li 0.488136 -2.90904 0.474313
Li 1.03722 0.0633827 -2.8314
Li -0.792963 -1.7416 -0.179421
Li -1.26384 -0.945524 -2.3806
Li 2.26505 2.36278 0.9131
Li 2.11734 -0.419559 1.61324
9
 Atoms. Timestep: 1520
Li -3.54504 2.07246 0.151008
Li -1.9597 0.198433 2.18244
Li -0.896919 0.117247 -0.457174
Li 0.9429 -3.44193 0.630547
Li 1.8505 0.376484 -1.57692
Li -1.91111 -1.91904 -0.521102
Li 0.318675 -1.30161 -1.82712
Li 0.697739 1.26712 -0.248058
Li 2.13102 0.317069 0.916974
9
 Atoms. Timestep: 1540
Li -3.79955 1.62073 0.426867
Li -1.96428 0.851809 3.44877
Li -1.98977 0.450497 -1.60505
Li 1.55152 -3.06863 0.660057
Li 3.62396 0.24878 -1.43103
Li -3.40226 -3.84163 -1.46218
Li 0.93353 -1.6133 -1.32746
Li 0.637742 1.48586 -1.20603
Li 1.50477 1.10192 1.36107
9
 Atoms. Timestep: 1560
Li -3.20746 0.867009 0.918815
Li -1.51076 0.0619397 3.69911
Li -1.83278 2.25151 -2.0699
Li 1.99519 -2.16567 0.694945
Li 3.81793 -0.839223 -1.9772
Li -3.78987 -4.6054 -2.11186
Li 0.629804 -0.70298 -0.375338
Li 1.64088 1.20774 -1.57235
Li 0.176207 1.85744 2.2552
9
 Atoms. Timestep: 1580
Li -2.16956 0.307477 1.31102
Li -0.897874 -1.64524 2.77375
Li -0.497848 4.35286 -1.54878
Li 2.08044 -1.42571 0.783408
Li 2.26457 -2.14448 -2.81203
Li -2.82693 -3.71671 -2.04648
Li -0.489597 0.905634 0.341186
Li 3.10743 0.572967 -1.11539
Li -1.01743 2.1073 2.95819
9
 Atoms. Timestep: 1600
Li -1.98353 -0.0638554 1.73813
Li -0.525107 -3.14567 1.28543
Li 1.13304 5.37794 -0.390527
Li 1.55952 -1.0979 0.641389
Li -0.00438383 -2.81031 -3.38793
Li -1.14896 -1.76438 -1.31106
Li -0.882536 2.29053 0.163761
Li 4.06266 -0.0208934 -0.127134
Li -1.286 1.70838 3.02612
9
 Atoms. Timestep: 1620
Li -2.3773 0.0626837 1.45118
Li -0.637217 -3.4551 0.21096
Li 1.98952 4.66133 0.642674
Li 1.02724 -1.53151 0.599281
Li -1.49676 -2.40751 -3.33625
Li -0.115425 0.106825 -0.612967
Li -0.79208 2.28254 -0.464051
Li 3.88239 -0.185072 0.743452
Li -0.342815 1.11964 2.55806
9
 Atoms. Timestep: 1640
Li -2.94887 0.794479 0.615176
Li -1.2267 -2.41861 0.230547
Li 1.51381 2.6796 0.873885
Li 1.16419 -2.60325 0.956961
Li -1.24106 -1.20207 -2.68598
Li -0.0769036 -0.74148 -0.626771
Li -0.976514 2.4172 -1.07204
Li 2.69746 0.179407 0.920579
Li 1.15267 0.635765 1.79819
9
 Atoms. Timestep: 1660
Li -3.22753 1.75936 -0.12453
Li -2.4634 -1.08747 1.7712
Li 0.210873 1.3966 -0.211802
Li 1.39299 -3.27635 1.00993
Li 0.413897 0.166028 -2.31372
Li -0.174383 -2.88454 -0.881691
Li -1.12254 1.67749 -1.39294
Li 3.15785 0.283706 -0.891353
Li 0.211068 0.303155 2.84372
9
 Atoms. Timestep: 1680
Li -3.0832 2.3332 -0.242188
Li -3.08817 -0.0224123 3.54733
Li 0.345411 0.931132 -0.249014
Li 1.49045 -3.14817 0.712772
Li 1.68992 0.797686 -2.52249
Li -1.05797 -4.49821 -1.18524
Li -2.33678 0.237913 -2.51041
Li 4.11707 0.448819 -2.25267
Li -0.828459 0.285115 3.67745
9
 Atoms. Timestep: 1700
Li -2.5772 2.13903 0.308528
Li -2.86352 0.119452 4.27685
Li 0.238285 1.64579 -0.434363
Li 1.37044 -2.30096 0.233386
Li 1.28487 0.297335 -2.98774
Li -2.37549 -4.52321 -1.38182
Li -2.24518 -1.32749 -2.2748
Li 5.25069 0.556718 -2.04639
Li -0.726168 0.850116 3.36043
9
 Atoms. Timestep: 1720
Li -2.031 1.30202 1.15289
Li -1.83928 -0.745404 3.51064
Li -0.0507222 3.06118 -0.709576
Li 1.11251 -1.29018 -0.115539
Li 0.799532 -1.16779 -3.08037
Li -3.27809 -2.96971 -1.34247
Li -0.879229 -1.97592 -0.810792
Li 4.46963 0.712495 -0.697255
Li 0.343847 1.6213 2.08117
9
 Atoms. Timestep: 1740
Li -1.8145 0.378302 1.72747
Li -0.572429 -1.94548 2.23141
Li -0.328771 4.245 -0.889011
Li 1.75306 -0.44837 -0.10165
Li 0.550399 -2.63403 -2.73652
Li -3.19254 -0.876769 -1.09428
Li -0.127291 -1.95571 0.223366
Li 2.6906 1.00794 1.05348
Li 1.31105 2.149 0.749459
9
 Atoms. Timestep: 1760
Li -2.05842 -0.0210069 1.65693
Li -0.434666 -2.49903 3.51242
Li -0.467145 4.51425 -0.921644
Li 2.15552 -1.15485 -0.290626
Li 0.822891 -3.47438 -2.50586
Li -2.14222 0.414847 -0.797865
Li -0.21645 -1.37709 -1.81516
Li 3.23023 1.19452 2.79201
Li 0.271033 3.07618 0.178957
9
 Atoms. Timestep: 1780
Li -2.62247 0.337273 1.08816
Li -0.842248 -2.29504 3.73974
Li -0.699539 4.31376 -1.25897
Li 2.46433 -2.08378 0.161678
Li 1.55768 -3.44031 -2.7428
Li -0.872966 0.194807 -0.498447
Li -1.10571 0.28205 -2.80436
Li 3.19719 0.998894 2.50553
Li -0.335106 2.01098 1.31472
9
 Atoms. Timestep: 1800
Li -3.18433 1.22443 0.412635
Li -1.52634 -1.47582 2.76922
Li -0.512033 3.10907 -1.17479
Li 1.91465 -2.98387 0.78577
Li 2.02942 -1.92391 -2.76879
Li -0.182529 -1.36023 -0.183014
Li -1.39257 1.61666 -2.68207
Li 2.59734 0.561541 0.38396
Li -0.452021 0.325004 2.91248
9
 Atoms. Timestep: 1820
Li -3.30116 2.06455 -0.0326186
Li -2.31443 -0.931808 1.12126
Li 0.510142 2.10708 -0.00853012
Li 0.952038 -3.29696 1.24017
Li 1.89512 -0.5705 -3.53681
Li -0.583662 -3.34387 -0.483146
Li -1.50558 1.45594 -1.74795
Li 1.85609 0.810489 -1.20458
Li 0.256884 -0.492535 4.0023
9
 Atoms. Timestep: 1840
Li -2.92597 2.32054 0.0636682
Li -2.5868 -0.838195 0.0422161
Li 1.01211 2.11183 1.83382
Li 0.299248 -2.83193 1.32652
Li 1.22324 -0.890159 -5.5027
Li -1.90355 -4.44611 -1.29563
Li -0.996478 0.249367 -0.403491
Li 1.9431 1.82522 -0.942213
Li 1.09679 -0.208687 3.79065
9
 Atoms. Timestep: 1860
Li -2.29469 1.81931 0.624146
Li -2.78608 -1.7319 0.554422
Li 0.620162 2.75678 2.34713
Li 0.183388 -2.05133 0.892079
Li 0.513608 -1.39758 -5.44763
Li -3.10338 -3.99482 -1.92532
Li 0.793865 -0.247076 0.50882
Li 2.45059 1.91963 -0.547004
Li 1.49351 0.818598 2.41987
9
 Atoms. Timestep: 1880
Li -1.80445 0.884288 1.27254
Li -1.99629 -2.37761 1.95423
Li -0.388449 3.83438 0.880046
Li 0.414194 -2.50659 0.492445
Li 0.230724 -1.76022 -3.41753
Li -3.39681 -2.29324 -1.9586
Li 1.77268 -0.303673 -0.314704
Li 3.11926 1.49771 -0.0864488
Li 1.47212 2.22894 1.72859
9
 Atoms. Timestep: 1900
Li -1.77544 0.131876 1.58213
Li -0.730777 -2.34343 3.31688
Li -1.19872 4.22675 -1.536
Li 1.14704 -2.74271 0.167218
Li -0.277015 -2.44777 -1.40086
Li -2.59321 -0.463164 -1.37747
Li 1.67136 -0.345545 -0.952466
Li 3.77071 1.17836 0.0901958
Li 0.784228 3.17249 1.65694
9
 Atoms. Timestep: 1920
Li -2.2322 0.0495259 1.37746
Li 0.179795 -1.65555 3.74872
Li -1.24291 3.63413 -3.30875
Li 2.09848 -2.67173 0.417637
Li -1.28472 -3.32107 -1.25033
Li -1.21548 0.296768 -0.591737
Li 1.37541 1.0144 -0.475279
Li 3.5865 0.522094 0.0542163
Li -0.167267 2.75148 1.79148
9
 Atoms. Timestep: 1940
Li -2.95505 0.677196 0.942357
Li 0.139902 -0.769183 2.97262
Li -0.496519 2.44961 -3.2816
Li 2.43171 -2.19093 0.681143
Li -0.689365 -2.78288 -1.87304
Li -0.406746 -0.792542 -0.291706
Li 0.0651821 2.02203 -0.00806427
Li 2.80658 -0.0561195 -0.139002
Li -0.765324 1.24497 2.06019
9
 Atoms. Timestep: 1960
Li -3.42402 1.61283 0.392096
Li 0.0757335 -1.86042 2.02953
Li 0.548823 1.45079 -1.48217
Li 1.91167 -1.87612 0.909882
Li 1.14 -1.28165 -3.04688
Li -0.726517 -2.92654 -0.315078
Li -1.19097 2.06684 0.0995502
Li 1.73351 0.0746148 -0.566067
Li -1.53295 1.19301 1.88678
9
 Atoms. Timestep: 1980
Li -3.71408 2.25864 0.125078
Li -0.916005 -3.3808 1.4825
Li 0.26374 2.95284 0.13974
Li 1.27689 -2.03086 0.928056
Li 2.994 0.248112 -3.91273
Li -1.7177 -4.46347 -0.7003
Li -1.67693 1.05906 -0.795066
Li 2.36966 -0.641198 -0.478274
Li -1.52058 1.45637 2.26672
9
 Atoms. Timestep: 2000
Li -3.47045 2.22233 0.334617
Li -2.27722 -3.60613 1.31956
Li -0.173811 4.68706 1.13974
Li 0.519112 -2.6361 1.02006
Li 3.63879 0.835893 -3.79929
Li -2.7189 -4.44777 -1.31987
Li -1.30215 -0.68047 -1.55884
Li 3.42769 -0.362332 -0.629599
Li -0.273765 1.45494 2.55681
9
 Atoms. Timestep: 2020
Li -2.60013 1.4902 0.822263
Li -2.96352 -2.35032 1.54936
Li -0.521063 5.12642 1.01504
Li 0.178598 -2.85392 0.725782
Li 2.65795 0.100414 -2.78849
Li -3.06676 -2.88598 -1.74628
Li -0.290165 -1.9478 -1.55351
Li 3.76637 0.566632 -0.564738
Li 1.39269 1.22351 2.46176
9
 Atoms. Timestep: 2040
Li -1.59217 0.68814 1.19564
Li -2.61444 -0.589729 2.08071
Li -0.549647 3.99172 -0.148632
Li 0.500605 -2.78028 0.91032
Li 1.36743 -0.690636 -2.03941
Li -2.53073 -0.804671 -1.69119
Li -0.00811737 -2.45797 -0.981706
Li 3.17265 1.53546 -0.308199
Li 2.38683 0.911837 2.04684
9
 Atoms. Timestep: 2060
Li -0.343616 1.39059 0.568483
Li -2.22634 -0.534832 3.21854
Li -0.236891 2.04048 -1.59469
Li 1.40818 -2.70891 2.4228
Li 1.48895 0.0223229 -2.65699
Li -1.46785 0.422366 -1.19468
Li -1.63961 -2.66343 -0.558234
Li 2.04276 1.9534 -0.144857
Li 2.04436 0.674646 1.68299
9
 Atoms. Timestep: 2080
Li -0.891619 2.01791 0.490424
Li -1.2251 -1.03292 3.50971
Li 0.377548 1.47562 -2.63173
Li 2.15105 -2.20175 2.63298
Li 1.70096 -0.388042 -3.2674
Li -0.955877 -0.476515 -0.563501
Li -2.62674 -1.32158 0.0499579
Li 1.60436 1.73151 -0.495615
Li 0.621383 0.526918 1.79116
9
 Atoms. Timestep: 2100
Li -2.91609 2.15543 0.785327
Li -0.25545 -1.7596 2.7639
Li 0.288901 2.41065 -2.22515
Li 2.2359 -1.59104 1.40062
Li 2.05185 -1.87375 -3.56135
Li 0.181615 -1.55976 -0.723373
Li -3.38442 -0.153253 0.863602
Li 2.11203 0.852706 -0.84976
Li -0.912722 0.704544 2.08128
9
 Atoms. Timestep: 2120
Li -4.8008 2.35124 1.02961
Li 0.0445165 -2.25127 1.48176
Li -0.0325197 3.55286 -0.762427
Li 1.53177 -1.48613 -0.284995
Li 1.8153 -2.89544 -3.10659
Li 0.0428296 -2.99205 -1.10293
Li -2.23502 0.309542 0.662165
Li 2.89282 0.0455037 -0.968967
Li -1.36103 1.2801 2.49838
9
 Atoms. Timestep: 2140
Li -5.27764 2.1098 1.08405
Li -0.693369 -2.21381 0.763142
Li -0.355126 4.14605 0.819325
Li 0.381942 -2.0398 -0.98557
Li 1.28931 -2.95506 -2.49204
Li -1.41968 -3.97499 -1.51249
Li -0.174353 -0.0103668 -0.722046
Li 3.71389 0.295592 -1.06536
Li -0.235551 1.99171 3.07287
9
 Atoms. Timestep: 2160
Li -3.94513 1.2482 0.926205
Li -2.31717 -1.709 1.60455
Li -0.467758 3.80434 1.48472
Li -0.312266 -2.23895 -0.315526
Li 1.31661 -2.59673 -3.05905
Li -3.12191 -3.76165 -1.61181
Li 1.76099 0.228234 -1.89808
Li 3.62998 0.764224 -0.658693
Li 1.28664 2.1183 2.92451
9
 Atoms. Timestep: 2180
Li -1.6808 0.338291 0.656172
Li -3.33817 -0.979887 2.7732
Li -0.296643 2.75651 0.800429
Li 0.0279129 -2.41652 0.737223
Li 1.24747 -1.32284 -3.2252
Li -3.89988 -2.44836 -1.32236