4
 Atoms. Timestep: 0
Li -1.718984 -2.549552 2.146861
Li -3.508057 -0.853639 0.443873
Li 0.029461 -0.828149 0.498773
Li -0.047817 -4.213442 0.378585
4
 Atoms. Timestep: 10
Li -1.713260 -2.578811 2.093155
Li -3.369182 -0.837364 0.418231
Li -0.016874 -0.904641 0.317608
Li -0.060145 -4.258133 0.557766
4
 Atoms. Timestep: 20
Li -1.716578 -2.567831 2.224311
Li -3.500010 -0.906188 0.471332
Li 0.132796 -0.812803 0.447052
Li -0.046306 -4.298557 0.419067
4
 Atoms. Timestep: 30
Li -1.619520 -2.547767 2.144078
Li -3.472853 -0.910137 0.396509
Li 0.044974 -0.881787 0.518764
Li -0.064321 -4.094643 0.444870
4
 Atoms. Timestep: 40
Li -1.687011 -2.545012 2.244897
Li -3.335957 -0.780390 0.545570
Li -0.007621 -0.788727 0.445071
Li 0.073201 -4.190944 0.487775
4
 Atoms. Timestep: 50
Li -1.650021 -2.512930 2.226190
Li -3.368636 -0.911335 0.476671
Li 0.042644 -0.812228 0.408347
Li -0.031408 -4.181573 0.396869
4
 Atoms. Timestep: 60
Li -1.664533 -2.424153 2.192683
Li -3.338903 -0.731247 0.451298
Li -0.009041 -0.795088 0.388543
Li 0.044482 -4.264540 0.511462
4
 Atoms. Timestep: 70
Li -1.596816 -2.445757 2.227267
Li -3.345017 -0.705799 0.604981
Li 0.135508 -0.751851 0.485789
Li 0.002160 -4.153832 0.538154
4
 Atoms. Timestep: 80
Li -1.523142 -2.430713 2.291526
Li -3.272323 -0.714372 0.550394
Li 0.056772 -0.693554 0.565029
Li 0.167002 -4.150169 0.556344
4
 Atoms. Timestep: 90
Li -1.563911 -2.432940 2.237211
Li -3.153815 -0.707736 0.582604
Li 0.165857 -0.664569 0.623368
Li 0.112944 -4.101059 0.566979
4
 Atoms. Timestep: 100
Li -1.380925 -2.324077 2.276022
Li -3.142451 -0.707424 0.606620
Li 0.261491 -0.729214 0.564020
Li 0.281768 -4.008230 0.674315
4
 Atoms. Timestep: 110
Li -1.432435 -2.302050 2.416235
Li -3.136760 -0.572584 0.631450
Li 0.176948 -0.588561 0.622338
Li 0.234790 -3.944579 0.649468
4
 Atoms. Timestep: 120
Li -1.435639 -2.221755 2.325673
Li -3.059344 -0.545202 0.656239
Li 0.279349 -0.521669 0.675211
Li 0.337522 -3.923268 0.651785
4
 Atoms. Timestep: 130
Li -1.371408 -2.235185 2.431794
Li -3.052673 -0.573693 0.758229
Li 0.279752 -0.447395 0.775604
Li 0.270374 -3.816532 0.759913
4
 Atoms. Timestep: 140
Li -1.294848 -2.111749 2.442386
Li -2.859638 -0.493240 0.782987
Li 0.374109 -0.333350 0.773004
Li 0.382224 -3.768231 0.796235
4
 Atoms. Timestep: 150
Li -1.268041 -2.114524 2.532621
Li -2.938769 -0.432338 0.794588
Li 0.423614 -0.413946 0.864813
Li 0.355005 -3.739555 0.824227
4
 Atoms. Timestep: 160
Li -1.138931 -1.998160 2.557618
Li -2.810345 -0.328713 0.854738
Li 0.441737 -0.287984 0.823970
Li 0.521462 -3.685212 0.952471
4
 Atoms. Timestep: 170
Li -1.100941 -1.912835 2.573378
Li -2.646901 -0.258134 0.876913
Li 0.481286 -0.219410 0.914001
Li 0.488508 -3.524278 1.015653
4
 Atoms. Timestep: 180
Li -1.004537 -1.921193 2.769923
Li -2.666699 -0.188169 0.955821
Li 0.673363 -0.271061 1.034140
Li 0.564845 -3.458923 1.093359
4
 Atoms. Timestep: 190
Li -0.987073 -1.839499 2.742793
Li -2.530392 -0.077664 1.044596
Li 0.531616 -0.097155 1.071967
Li 0.609973 -3.456557 1.152884
4
 Atoms. Timestep: 200
Li -0.878082 -1.724799 2.774504
Li -2.472070 -0.021781 1.058191
Li 0.678576 0.004471 1.158357
Li 0.637422 -3.378812 1.219009
4
 Atoms. Timestep: 210
Li -0.803089 -1.683403 2.846424
Li -2.241913 0.026493 1.168865
Li 0.843073 0.028865 1.209286
Li 0.698743 -3.284594 1.331557
4
 Atoms. Timestep: 220
Li -0.679968 -1.679717 2.976731
Li -2.225742 0.125392 1.111539
Li 0.762196 0.147493 1.274498
Li 0.790444 -3.129605 1.474219
4
 Atoms. Timestep: 230
Li -0.581201 -1.545846 2.867459
Li -2.172203 0.184473 1.134960
Li 0.873768 0.244816 1.296161
Li 0.898826 -3.043656 1.486503
4
 Atoms. Timestep: 240
Li -0.589753 -1.458103 3.062454
Li -2.031057 0.246851 1.337128
Li 1.023632 0.336934 1.332458
Li 0.973881 -3.015020 1.550783
4
 Atoms. Timestep: 250
Li -0.377878 -1.347637 3.135603
Li -1.852319 0.280570 1.409097
Li 1.089250 0.350431 1.466965
Li 0.899421 -2.854576 1.628604
4
 Atoms. Timestep: 260
Li -0.336851 -1.202153 3.273092
Li -1.744636 0.475919 1.537439
Li 1.125410 0.537247 1.624687
Li 1.045604 -2.805073 1.754720
4
 Atoms. Timestep: 270
Li -0.156926 -1.110932 3.370500
Li -1.626136 0.513182 1.509848
Li 1.201056 0.608488 1.646715
Li 1.037310 -2.555732 1.844453
4
 Atoms. Timestep: 280
Li -0.124161 -1.023806 3.320430
Li -1.544428 0.565535 1.617457
Li 1.320689 0.670327 1.691327
Li 1.112020 -2.484024 1.963397
4
 Atoms. Timestep: 290
Li -0.043035 -0.889658 3.458256
Li -1.425251 0.662720 1.705962
Li 1.499634 0.851371 1.827376
Li 1.286466 -2.373287 2.054984
4
 Atoms. Timestep: 300
Li 0.099253 -0.773147 3.555744
Li -1.287940 0.761403 1.754197
Li 1.497759 0.905588 1.882105
Li 1.464686 -2.200785 2.116610
4
 Atoms. Timestep: 310
Li 0.242218 -0.666622 3.647083
Li -1.151464 0.894394 1.861843
Li 1.663300 1.142676 2.010923
Li 1.542983 -2.160584 2.247976
4
 Atoms. Timestep: 320
Li 0.425846 -0.605820 3.702198
Li -1.051328 1.031360 1.919692
Li 1.696221 1.061302 2.013215
Li 1.548130 -1.956451 2.370269
4
 Atoms. Timestep: 330
Li 0.478543 -0.450379 3.852961
Li -0.919096 1.155223 2.050574
Li 1.689783 1.265809 2.248930
Li 1.596825 -1.880857 2.549431
4
 Atoms. Timestep: 340
Li 0.495579 -0.336640 3.991011
Li -0.788505 1.297916 2.051212
Li 1.980036 1.395480 2.274638
Li 1.691819 -1.746023 2.557146
4
 Atoms. Timestep: 350
Li 0.652223 -0.176722 4.010645
Li -0.534032 1.350713 2.199203
Li 1.975477 1.499686 2.397789
Li 1.882426 -1.649088 2.770958
4
 Atoms. Timestep: 360
Li 0.742285 -0.092837 4.176809
Li -0.424273 1.510730 2.236523
Li 2.181510 1.578390 2.489842
Li 1.929105 -1.464719 2.848897
4
 Atoms. Timestep: 370
Li 0.943529 0.072701 4.244525
Li -0.333031 1.528410 2.456176
Li 2.271528 1.713818 2.558613
Li 2.037109 -1.364004 2.913672
4
 Atoms. Timestep: 380
Li 1.071383 0.258593 4.397911
Li -0.109079 1.701874 2.459953
Li 2.306437 1.893312 2.602207
Li 2.105563 -1.244452 3.119124
4
 Atoms. Timestep: 390
Li 1.210642 0.227770 4.320414
Li -0.074394 1.887679 2.580212
Li 2.490177 1.923229 2.801629
Li 2.218206 -1.013207 3.312472
4
 Atoms. Timestep: 400
Li 1.355981 0.419028 4.566410
Li 0.209500 1.994142 2.673349
Li 2.570435 2.158452 2.815433
Li 2.288196 -0.885136 3.321168
4
 Atoms. Timestep: 410
Li 1.526596 0.542490 4.626522
Li 0.323823 2.078000 2.718474
Li 2.639770 2.240513 2.927139
Li 2.395045 -0.704739 3.467305
4
 Atoms. Timestep: 420
Li 1.681011 0.663235 4.691916
Li 0.492550 2.277080 2.860787
Li 2.683697 2.394648 3.255731
Li 2.470375 -0.645854 3.644459
4
 Atoms. Timestep: 430
Li 1.818406 0.753368 4.899307
Li 0.703770 2.360128 3.007257
Li 2.884811 2.512773 3.151765
Li 2.628432 -0.367256 3.817643
4
 Atoms. Timestep: 440
Li 1.964968 0.941617 4.961657
Li 0.867389 2.428854 3.071522
Li 3.074110 2.767800 3.339441
Li 2.807012 -0.224310 3.909838
4
 Atoms. Timestep: 450
Li 2.113230 1.002237 5.082346
Li 1.072517 2.593122 3.130532
Li 3.202416 2.897067 3.454527
Li 2.794031 -0.022266 4.054291
4
 Atoms. Timestep: 460
Li 2.298609 1.197051 5.331524
Li 1.149063 2.670377 3.347001
Li 3.299532 3.000396 3.639775
Li 3.008552 0.219663 4.219446
4
 Atoms. Timestep: 470
Li 2.429898 1.381093 5.272748
Li 1.349223 2.803770 3.515577
Li 3.394441 3.070641 3.629973
Li 3.098268 0.182722 4.320260
4
 Atoms. Timestep: 480
Li 2.564274 1.510200 5.419767
Li 1.498023 3.070476 3.536139
Li 3.540301 3.216188 3.841814
Li 3.239359 0.399709 4.449247
4
 Atoms. Timestep: 490
Li 2.686915 1.684647 5.576827
Li 1.691219 3.240643 3.587455
Li 3.578994 3.377380 3.985182
Li 3.240940 0.647969 4.634427
4
 Atoms. Timestep: 500
Li 2.869742 1.794293 5.613936
Li 1.907857 3.351734 3.745759
Li 3.755790 3.610016 4.059601
Li 3.469726 0.735044 4.730583
4
 Atoms. Timestep: 510
Li 3.032634 1.981744 5.755422
Li 2.220680 3.398034 3.834659
Li 3.843069 3.730593 4.242784
Li 3.591731 0.945327 4.839251
4
 Atoms. Timestep: 520
Li 3.204308 2.089960 5.937420
Li 2.184096 3.522799 4.010889
Li 4.051573 3.893660 4.315572
Li 3.673243 1.087921 5.102238
4
 Atoms. Timestep: 530
Li 3.369845 2.214185 6.055187
Li 2.495329 3.804379 4.187881
Li 4.188720 4.018737 4.406311
Li 3.824832 1.351221 5.230624
4
 Atoms. Timestep: 540
Li 3.454973 2.501121 6.284683
Li 2.655122 3.937156 4.208679
Li 4.263782 4.155076 4.555878
Li 3.904269 1.485725 5.310456
4
 Atoms. Timestep: 550
Li 3.630815 2.607574 6.354730
Li 2.696376 4.000159 4.310978
Li 4.426892 4.349279 4.818780
Li 4.050427 1.652931 5.510600
4
 Atoms. Timestep: 560
Li 3.811693 2.771268 6.539392
Li 3.027486 4.251336 4.386323
Li 4.559954 4.416351 4.807882
Li 4.255541 1.856269 5.707821
4
 Atoms. Timestep: 570
Li 3.947562 2.781993 6.464395
Li 3.237966 4.346074 4.652629
Li 4.653279 4.625283 4.963086
Li 4.276018 2.110718 5.781110
4
 Atoms. Timestep: 580
Li 4.178055 3.052505 6.677977
Li 3.493747 4.503896 4.690154
Li 4.874142 4.777530 5.169781
Li 4.388936 2.221964 5.899224
4
 Atoms. Timestep: 590
Li 4.308265 3.180425 6.803395
Li 3.695989 4.577891 4.720944
Li 4.942929 4.991490 5.159720
Li 4.471131 2.386040 6.179883
4
 Atoms. Timestep: 600
Li 4.585613 3.253632 7.026661
Li 3.834963 4.772304 4.958436
Li 5.150129 5.212651 5.310134
Li 4.662902 2.597175 6.346834
4
 Atoms. Timestep: 610
Li 4.515968 3.495893 7.030949
Li 3.982929 4.921853 5.079404
Li 5.236959 5.328029 5.486791
Li 4.782261 2.826204 6.508070
4
 Atoms. Timestep: 620
Li 4.771857 3.660456 7.222820
Li 4.189020 5.053357 5.162953
Li 5.480222 5.529219 5.640391
Li 4.950896 2.931216 6.639976
4
 Atoms. Timestep: 630
Li 5.026637 3.742880 7.393208
Li 4.398876 5.177210 5.318192
Li 5.446518 5.618185 5.731934
Li 5.039527 3.098510 6.792744
4
 Atoms. Timestep: 640
Li 5.063413 4.016155 7.450590
Li 4.597522 5.386689 5.362700
Li 5.648212 5.834230 5.923549
Li 5.203399 3.280254 7.018773
4
 Atoms. Timestep: 650
Li 5.404423 4.242407 7.551122
Li 4.774396 5.588613 5.527601
Li 5.776124 5.984036 6.126759
Li 5.327742 3.495348 7.047422
4
 Atoms. Timestep: 660
Li 5.428491 4.335062 7.723779
Li 4.928589 5.711464 5.626308
Li 5.886144 6.139051 6.230840
Li 5.455248 3.780931 7.254208
4
 Atoms. Timestep: 670
Li 5.577816 4.441140 7.938684
Li 5.234752 5.863525 5.840615
Li 6.129631 6.277721 6.331869
Li 5.535812 3.949095 7.398353
4
 Atoms. Timestep: 680
Li 5.884934 4.595825 8.003858
Li 5.392522 6.027896 5.896226
Li 6.384122 6.378690 6.540749
Li 5.662925 4.054481 7.534439
4
 Atoms. Timestep: 690
Li 6.038984 4.792446 8.062805
Li 5.683393 6.203381 6.032724
Li 6.367146 6.635612 6.534929
Li 5.889676 4.284275 7.722983
4
 Atoms. Timestep: 700
Li 6.215823 5.048922 8.312242
Li 5.828368 6.228231 6.218313
Li 6.523528 6.823801 6.770233
Li 6.019086 4.522046 7.808972
4
 Atoms. Timestep: 710
Li 6.473618 5.135470 8.384838
Li 6.027310 6.504282 6.343939
Li 6.668758 7.044630 6.859968
Li 6.049006 4.765517 8.117410
4
 Atoms. Timestep: 720
Li 6.485976 5.409789 8.634845
Li 6.187504 6.766442 6.469586
Li 6.802652 7.058841 7.040858
Li 6.164707 4.835869 8.249017
4
 Atoms. Timestep: 730
Li 6.703668 5.490655 8.691970
Li 6.405613 6.773708 6.485128
Li 6.957040 7.283420 7.178061
Li 6.329903 5.119024 8.382486
4
 Atoms. Timestep: 740
Li 6.862215 5.702437 8.843462
Li 6.614174 7.033848 6.687460
Li 7.127928 7.511772 7.281002
Li 6.468685 5.247013 8.534587
4
 Atoms. Timestep: 750
Li 7.017198 5.734385 9.029485
Li 6.823039 7.167268 6.815695
Li 7.216388 7.666409 7.397352
Li 6.720604 5.406433 8.776742
4
 Atoms. Timestep: 760
Li 7.298633 6.013779 9.083994
Li 7.004946 7.258870 6.869130
Li 7.411245 7.795875 7.603854
Li 6.655766 5.656176 8.888536
4
 Atoms. Timestep: 770
Li 7.464270 6.197864 9.148450
Li 7.228161 7.414518 7.072636
Li 7.559513 8.020588 7.656141
Li 6.878831 5.848706 9.101443
4
 Atoms. Timestep: 780
Li 7.487748 6.298410 9.400723
Li 7.383683 7.608396 7.095327
Li 7.632516 8.020447 7.924620
Li 7.038315 6.108422 9.214370
4
 Atoms. Timestep: 790
Li 7.647594 6.503404 9.447141
Li 7.679815 7.683640 7.263270
Li 7.848511 8.266444 8.106717
Li 7.156664 6.171726 9.437560
4
 Atoms. Timestep: 800
Li 7.917014 6.639484 9.551454
Li 7.857029 7.897106 7.458048
Li 7.969272 8.492353 8.205114
Li 7.166098 6.304638 9.594958
4
 Atoms. Timestep: 810
Li 8.098303 6.849038 9.708882
Li 8.026892 8.094525 7.539640
Li 8.087110 8.681759 8.365965
Li 7.396834 6.567155 9.722980
4
 Atoms. Timestep: 820
Li 8.242828 7.018935 9.981956
Li 8.275460 8.251178 7.716991
Li 8.301388 8.802990 8.545214
Li 7.485448 6.819744 9.957286
4
 Atoms. Timestep: 830
Li 8.445274 7.175407 10.091742
Li 8.499318 8.419202 7.846450
Li 8.343128 8.990905 8.628834
Li 7.617834 6.786884 10.060300
4
 Atoms. Timestep: 840
Li 8.642245 7.306455 10.210912
Li 8.686084 8.514848 7.946808
Li 8.567453 9.152736 8.711176
Li 7.750003 7.236901 10.273924
4
 Atoms. Timestep: 850
Li 8.692022 7.453804 10.343158
Li 8.863456 8.752839 8.093414
Li 8.680690 9.223260 8.788983
Li 7.952852 7.425580 10.380454
4
 Atoms. Timestep: 860
Li 8.949109 7.641862 10.525605
Li 9.055523 8.920625 8.241244
Li 8.791084 9.536336 8.914657
Li 8.026476 7.511138 10.550505
4
 Atoms. Timestep: 870
Li 9.171385 7.886235 10.625679
Li 9.261818 9.058030 8.345473
Li 8.989958 9.679154 9.140508
Li 8.185539 7.799134 10.712942
4
 Atoms. Timestep: 880
Li 9.426642 7.880436 10.739783
Li 9.502438 9.197555 8.412305
Li 9.065180 9.777714 9.318144
Li 8.227281 7.937674 10.960620
4
 Atoms. Timestep: 890
Li 9.464908 8.144942 10.804029
Li 9.642241 9.363202 8.618553
Li 9.222614 9.933655 9.386634
Li 8.466113 8.078246 11.156303
4
 Atoms. Timestep: 900
Li 9.693876 8.362794 10.917915
Li 9.946456 9.461213 8.753334
Li 9.415636 10.157464 9.507281
Li 8.482400 8.296254 11.208595
4
 Atoms. Timestep: 910
Li 9.777603 8.468454 11.079340
Li 10.061727 9.607484 8.823766
Li 9.573567 10.224934 9.620208
Li 8.638376 8.425979 11.310126
4
 Atoms. Timestep: 920
Li 9.940419 8.708065 11.281112
Li 10.262790 9.760702 8.887198
Li 9.669975 10.425929 9.749118
Li 8.770117 8.625081 11.418663
4
 Atoms. Timestep: 930
Li 10.143350 8.707317 11.414712
Li 10.457314 9.888231 9.043715
Li 9.789653 10.629648 9.904680
Li 9.030671 8.839952 11.634808
4
 Atoms. Timestep: 940
Li 10.338515 8.947199 11.431369
Li 10.675622 10.130093 9.171275
Li 9.902343 10.689829 10.017915
Li 9.099131 9.101724 11.819237
4
 Atoms. Timestep: 950
Li 10.501494 9.109408 11.649038
Li 10.762924 10.229545 9.295894
Li 10.173113 10.893582 10.265787
Li 9.160865 9.225678 12.070507
4
 Atoms. Timestep: 960
Li 10.600964 9.245665 11.726887
Li 11.106466 10.380266 9.438050
Li 10.248291 11.093634 10.342608
Li 9.201919 9.319829 12.114527
4
 Atoms. Timestep: 970
Li 10.819723 9.377915 11.718598
Li 11.189524 10.619921 9.561743
Li 10.340955 11.276051 10.426930
Li 9.390324 9.548133 12.233375
4
 Atoms. Timestep: 980
Li 10.857205 9.549772 11.938467
Li 11.441691 10.602572 9.507614
Li 10.465975 11.284340 10.560854
Li 9.486651 9.819744 12.402245
4
 Atoms. Timestep: 990
Li 11.168106 9.741067 12.106186
Li 11.563958 10.831895 9.799606
Li 10.586197 11.601044 10.640025
Li 9.684953 9.908279 12.605905
4
 Atoms. Timestep: 1000
Li 11.285792 9.830318 12.289397
Li 11.782778 10.933863 9.890524
Li 10.752005 11.655387 10.923861
Li 9.745816 10.090003 12.804587
4
 Atoms. Timestep: 1010
Li 11.375518 10.041892 12.437908
Li 11.829807 11.126803 10.089191
Li 10.914277 11.783327 11.020826
Li 9.906242 10.218621 12.832413
4
 Atoms. Timestep: 1020
Li 11.585678 10.196513 12.566559
Li 12.135318 11.231287 10.043096
Li 10.974675 11.913623 11.080624
Li 10.006484 10.334624 12.928479
4
 Atoms. Timestep: 1030
Li 11.709939 10.250749 12.601123
Li 12.343860 11.468638 10.158683
Li 11.045829 12.158137 11.158311
Li 10.137472 10.588976 13.215066
4
 Atoms. Timestep: 1040
Li 11.898838 10.406757 12.736645
Li 12.591181 11.518700 10.196274
Li 11.245089 12.270493 11.241591
Li 10.083152 10.736838 13.416943
4
 Atoms. Timestep: 1050
Li 12.020434 10.635356 12.830314
Li 12.659643 11.700514 10.384112
Li 11.330967 12.353554 11.362155
Li 10.342945 11.003893 13.509213
4
 Atoms. Timestep: 1060
Li 12.157889 10.785738 12.920937
Li 12.824234 11.778162 10.519772
Li 11.407400 12.526981 11.583837
Li 10.440759 11.120694 13.699749
4
 Atoms. Timestep: 1070
Li 12.288831 10.838520 13.027967
Li 13.050778 11.883532 10.548681
Li 11.467550 12.613840 11.609349
Li 10.505162 11.235564 13.713426
4
 Atoms. Timestep: 1080
Li 12.493093 10.957322 13.160908
Li 13.257603 12.030080 10.690502
Li 11.658727 12.753317 11.760025
Li 10.584427 11.505934 13.876952
4
 Atoms. Timestep: 1090
Li 12.650733 11.084291 13.258469
Li 13.247877 12.226406 10.876155
Li 11.833578 12.896648 11.808318
Li 10.621130 11.670775 14.011658
4
 Atoms. Timestep: 1100
Li 12.748381 11.276681 13.388969
Li 13.530182 12.329548 10.862905
Li 11.893230 12.996020 11.961622
Li 10.857372 11.685621 14.098856
4
 Atoms. Timestep: 1110
Li 12.865839 11.411020 13.503341
Li 13.604048 12.462750 10.972050
Li 12.048814 13.248751 12.052800
Li 10.969004 11.889174 14.271680
4
 Atoms. Timestep: 1120
Li 13.004502 11.465352 13.472942
Li 13.740778 12.505633 11.049200
Li 12.190242 13.333924 12.250333
Li 10.963835 11.973131 14.418731
4
 Atoms. Timestep: 1130
Li 12.977475 11.657824 13.603573
Li 13.960086 12.572991 11.256860
Li 12.252864 13.498863 12.231121
Li 11.037917 12.156238 14.471169
4
 Atoms. Timestep: 1140
Li 13.278702 11.760502 13.773635
Li 14.162561 12.724518 11.301872
Li 12.321916 13.595386 12.407003
Li 11.285042 12.259374 14.638730
4
 Atoms. Timestep: 1150
Li 13.301693 11.950174 13.797020
Li 14.220919 12.917302 11.402900
Li 12.384180 13.703247 12.497658
Li 11.353801 12.432748 14.756089
4
 Atoms. Timestep: 1160
Li 13.450491 11.955687 14.008817
Li 14.394817 13.030946 11.478339
Li 12.543856 13.813436 12.567311
Li 11.418052 12.619180 14.895370
4
 Atoms. Timestep: 1170
Li 13.561953 12.047475 14.058267
Li 14.486701 13.112499 11.663751
Li 12.766267 13.935812 12.679279
Li 11.581334 12.718526 15.084941
4
 Atoms. Timestep: 1180
Li 13.714475 12.183788 14.271692
Li 14.628955 13.146229 11.696555
Li 12.804952 13.998326 12.836111
Li 11.630996 12.817607 15.120199
4
 Atoms. Timestep: 1190
Li 13.878383 12.309832 14.235222
Li 14.727294 13.348044 11.735593
Li 12.864906 14.132250 12.926558
Li 11.831950 12.928197 15.177681
4
 Atoms. Timestep: 1200
Li 13.851486 12.460172 14.264964
Li 14.974072 13.439971 11.784727
Li 12.979513 14.260152 12.942396
Li 11.809986 13.164793 15.268013
4
 Atoms. Timestep: 1210
Li 14.019542 12.573425 14.386865
Li 15.024106 13.462438 11.918258
Li 13.031421 14.359835 12.986284
Li 11.893546 13.215854 15.410541
4
 Atoms. Timestep: 1220
Li 14.144642 12.704814 14.587668
Li 15.153363 13.618618 11.994484
Li 13.110550 14.475317 13.175905
Li 11.923340 13.319111 15.448635
4
 Atoms. Timestep: 1230
Li 14.211747 12.785874 14.547148
Li 15.331018 13.708048 11.976625
Li 13.142937 14.500650 13.290266
Li 12.072452 13.464909 15.573425
4
 Atoms. Timestep: 1240
Li 14.344007 12.865195 14.640639
Li 15.335967 13.816353 12.141678
Li 13.200933 14.640041 13.260934
Li 12.081524 13.500416 15.678475
4
 Atoms. Timestep: 1250
Li 14.444223 12.943586 14.762846
Li 15.528324 13.963685 12.130799
Li 13.279789 14.778306 13.438615
Li 12.147089 13.614129 15.686076
4
 Atoms. Timestep: 1260
Li 14.525787 12.961298 14.779117
Li 15.591283 13.901338 12.250742
Li 13.383738 14.880686 13.488851
Li 12.245061 13.715616 15.976839
4
 Atoms. Timestep: 1270
Li 14.679001 13.066647 14.908164
Li 15.671357 14.070156 12.317171
Li 13.494549 14.916054 13.543476
Li 12.282171 13.771552 16.033127
4
 Atoms. Timestep: 1280
Li 14.729286 13.176871 15.039105
Li 15.842888 14.137490 12.504451
Li 13.580552 15.038648 13.500058
Li 12.390418 13.929669 16.069162
4
 Atoms. Timestep: 1290
Li 14.784439 13.232920 15.036065
Li 15.972776 14.183876 12.532786
Li 13.568921 15.044627 13.678465
Li 12.335546 14.074645 16.053169
4
 Atoms. Timestep: 1300
Li 14.794942 13.412754 15.082184
Li 15.982982 14.216172 12.493977
Li 13.717220 15.248393 13.690272
Li 12.451949 14.091356 16.123618
4
 Atoms. Timestep: 1310
Li 14.908637 13.411369 15.182663
Li 16.104696 14.241463 12.581682
Li 13.809412 15.244874 13.663755
Li 12.499045 14.220427 16.250337
4
 Atoms. Timestep: 1320
Li 14.967720 13.427329 15.076765
Li 16.205959 14.402292 12.556482
Li 13.806028 15.402428 13.815350
Li 12.605964 14.294051 16.311110
4
 Atoms. Timestep: 1330
Li 15.122771 13.520788 15.147208
Li 16.267469 14.457296 12.667227
Li 13.907650 15.435486 13.937325
Li 12.608748 14.455425 16.373469
4
 Atoms. Timestep: 1340
Li 15.134787 13.530611 15.288275
Li 16.283578 14.535746 12.720582
Li 13.916801 15.512819 13.895814
Li 12.759841 14.410152 16.473338
4
 Atoms. Timestep: 1350
Li 15.291204 13.671536 15.348499
Li 16.457290 14.612972 12.828585
Li 13.968220 15.507871 14.052007
Li 12.743379 14.451310 16.505183
4
 Atoms. Timestep: 1360
Li 15.400825 13.676447 15.434847
Li 16.613322 14.574426 12.813226
Li 13.925575 15.546521 14.037986
Li 12.757697 14.562522 16.522851
4
 Atoms. Timestep: 1370
Li 15.323472 13.911658 15.359137
Li 16.530582 14.727262 12.755103
Li 14.057401 15.599047 14.078930
Li 12.851053 14.599391 16.637975
4
 Atoms. Timestep: 1380
Li 15.307430 13.720785 15.500409
Li 16.614054 14.756073 12.891931
Li 14.128107 15.641715 14.172142
Li 12.928786 14.669077 16.689824
4
 Atoms. Timestep: 1390
Li 15.376084 13.804157 15.492331
Li 16.616100 14.773212 13.009879
Li 14.072035 15.718717 14.233202
Li 12.900827 14.858535 16.710063
4
 Atoms. Timestep: 1400
Li 15.437127 13.920353 15.524475
Li 16.772447 14.776161 12.936494
Li 14.197636 15.863228 14.191154
Li 12.931924 14.826212 16.739901
4
 Atoms. Timestep: 1410
Li 15.527466 13.972034 15.521025
Li 16.681370 14.882860 12.977278
Li 14.195263 15.703342 14.224945
Li 12.878963 14.878625 16.744087
4
 Atoms. Timestep: 1420
Li 15.578793 13.851572 15.651574
Li 16.842682 14.821262 12.989923
Li 14.252831 15.898888 14.228382
Li 12.973483 14.771387 16.785708
4
 Atoms. Timestep: 1430
Li 15.628347 13.968391 15.512856
Li 16.895226 14.966330 12.995797
Li 14.370792 15.790407 14.390067
Li 12.971528 14.859313 16.824036
4
 Atoms. Timestep: 1440
Li 15.507331 13.959946 15.656560
Li 16.897863 14.952071 13.008551
Li 14.332541 15.817352 14.321593
Li 13.063604 14.876573 16.874743
4
 Atoms. Timestep: 1450
Li 15.593737 14.082900 15.690305
Li 16.901655 14.985710 13.014763
Li 14.288663 15.946900 14.269171
Li 13.097386 14.933537 16.840003
4
 Atoms. Timestep: 1460
Li 15.521709 14.003327 15.547308
Li 16.861270 14.947881 13.103281
Li 14.308615 15.961897 14.347462
Li 13.112370 15.019049 16.871606
4
 Atoms. Timestep: 1470
Li 15.706499 13.994914 15.695654
Li 16.909939 14.992516 12.974751
Li 14.377790 15.932926 14.365980
Li 12.992240 14.936973 16.920695
4
 Atoms. Timestep: 1480
Li 15.644304 14.139115 15.711534
Li 16.880903 14.948548 13.073520
Li 14.279483 15.973111 14.305444
Li 13.003292 14.878143 16.947830
4
 Atoms. Timestep: 1490
Li 15.677652 14.095354 15.788760
Li 17.047780 14.968729 13.050180
Li 14.339286 15.980186 14.254775
Li 12.992313 14.890623 16.948336
