9
 Atoms. Timestep: 100
Li -1.4487 -2.45573 2.30588
Li -2.15512 -0.662514 0.342089
Li 0.551548 -1.09534 0.959602
Li -0.913798 -3.06033 -0.385137
Li 2.14629 0.236003 -0.835688
Li 1.96151 2.92991 -0.289294
Li -0.286635 1.3832 0.128432
Li 0.583387 1.85611 -2.4614
Li -0.295811 -0.686582 -1.70507
9
 Atoms. Timestep: 150
Li -1.47385 -2.30879 2.30474
Li -2.18597 -0.637991 0.37016
Li 0.560763 -0.976697 0.981474
Li -0.803463 -3.0177 -0.349139
Li 2.1902 0.120762 -0.904159
Li 1.85626 2.76624 -0.272929
Li -0.380773 1.39631 0.149851
Li 0.631237 1.79261 -2.45772
Li -0.311201 -0.657205 -1.62292
9
 Atoms. Timestep: 200
Li -1.49283 -2.14232 2.40978
Li -2.33561 -0.591888 0.333959
Li 0.572038 -0.782405 1.06055
Li -0.605244 -2.95297 -0.164443
Li 2.29975 -0.0913226 -1.05695
Li 1.84702 2.55725 -0.151937
Li -0.629176 1.51444 0.150785
Li 0.669067 1.6713 -2.50021
Li -0.364781 -0.636646 -1.5927
9
 Atoms. Timestep: 250
Li -1.46592 -1.84129 2.499
Li -2.43401 -0.695414 0.317761
Li 0.536863 -0.327881 1.05393
Li -0.388207 -2.84329 0.155698
Li 2.28252 -0.354739 -1.21712
Li 1.81094 2.03435 -0.000596298
Li -0.916635 1.66259 -0.0194316
Li 0.780572 1.6312 -2.43376
Li -0.423874 -0.621825 -1.4477
9
 Atoms. Timestep: 300
Li -1.33881 -1.40626 2.72926
Li -2.50583 -0.748223 0.313251
Li 0.233217 -0.179794 1.25222
Li -0.100716 -2.61465 0.492655
Li 2.22834 -0.793601 -1.36786
Li 1.8898 1.68652 0.140288
Li -1.25017 1.81866 -0.337877
Li 0.858863 1.60097 -2.3583
Li -0.453097 -0.598111 -1.43651
9
 Atoms. Timestep: 350
Li -1.70139 -1.19479 3.28031
Li -2.42445 -0.787766 0.526361
Li -0.0127478 0.416905 1.14098
Li 0.158118 -2.5387 0.648335
Li 2.12551 -1.14845 -1.40637
Li 2.06466 1.50751 0.0896281
Li -1.352 1.77453 -0.61758
Li 0.947392 1.50923 -2.30253
Li -0.491442 -0.636083 -1.34838
9
 Atoms. Timestep: 400
Li -2.05912 -0.83896 3.5185
Li -2.30239 -0.906942 0.907987
Li -0.243946 0.783161 1.34583
Li 0.38667 -2.16266 0.778073
Li 2.07602 -1.31852 -1.32381
Li 2.34933 1.09102 0.0210187
Li -1.528 1.87401 -1.03695
Li 0.971151 1.2712 -2.35127
Li -0.594093 -0.747471 -1.24127
9
 Atoms. Timestep: 450
Li -2.28362 -0.276215 3.73989
Li -2.22285 -1.15536 1.03475
Li -0.275344 1.06718 1.27909
Li 0.638074 -1.59498 1.11972
Li 1.97328 -1.59001 -1.43439
Li 2.23854 0.566204 0.154426
Li -1.55867 1.84917 -1.34684
Li 1.02266 0.944209 -2.27411
Li -0.72665 -0.627255 -1.06553
9
 Atoms. Timestep: 500
Li -2.40467 0.413963 3.63984
Li -2.09503 -1.35547 1.46762
Li -0.51184 1.30754 0.906757
Li 0.587286 -1.41465 1.68512
Li 1.6384 -2.03205 -1.7333
Li 2.14154 0.459705 0.240306
Li -1.44096 1.90072 -1.47859
Li 1.2309 0.790492 -2.19239
Li -0.565168 -0.763096 -0.798786
9
 Atoms. Timestep: 550
Li -2.4082 1.14803 3.16709
Li -2.16164 -1.37945 1.90828
Li -0.67698 1.49623 1.00271
Li 0.578011 -1.57822 2.2916
Li 1.35864 -2.25903 -1.96778
Li 2.04006 0.340527 0.32222
Li -1.19742 1.74885 -1.85016
Li 1.26345 0.693825 -2.32859
Li -0.399662 -0.801934 -0.375262
9
 Atoms. Timestep: 600
Li -2.59796 1.78363 2.70174
Li -2.22683 -1.19008 2.19224
Li -0.41598 1.70905 0.934218
Li 0.783782 -1.53966 2.52577
Li 1.1113 -2.22606 -2.15172
Li 1.84253 0.0940998 0.604242
Li -1.0578 1.42141 -2.01059
Li 1.42683 0.361825 -2.36506
Li -0.600294 -0.933235 0.046883
9
 Atoms. Timestep: 650
Li -2.93459 2.17387 2.26745
Li -2.13856 -0.800769 2.62165
Li 0.0316265 1.90819 0.4581
Li 0.713259 -1.50349 2.55068
Li 0.698819 -2.36225 -2.12331
Li 1.87317 -0.06637 0.584625
Li -0.995073 0.92437 -1.75729
Li 1.85706 0.315815 -2.04573
Li -0.908405 -1.07069 0.0822386
9
 Atoms. Timestep: 700
Li -3.05953 2.28916 1.65151
Li -1.93542 -0.277022 2.99688
Li 0.36687 2.12691 0.153728
Li 0.389741 -1.60199 2.56304
Li 0.234445 -2.27372 -1.90788
Li 1.70436 -0.48692 0.605955
Li -0.820289 0.398164 -1.87795
Li 2.11039 0.504173 -1.96383
Li -0.794604 -1.15935 0.420108
9
 Atoms. Timestep: 750
Li -2.96908 2.13636 0.98326
Li -1.71561 0.315828 3.06626
Li 0.652429 2.0433 -0.210262
Li 0.340452 -2.00513 3.20429
Li 0.078949 -2.24107 -1.61184
Li 1.59313 -0.797333 0.429227
Li -0.562757 0.375977 -2.06864
Li 2.1142 0.70588 -1.93321
Li -1.27033 -1.05053 0.628484
9
 Atoms. Timestep: 800
Li -2.62387 1.71004 0.346774
Li -1.39527 0.827959 2.94043
Li 0.628851 2.0459 -0.113736
Li 0.275042 -2.23219 3.46687
Li 0.0918846 -2.58755 -1.40965
Li 1.15919 -0.869097 0.2305
Li -0.608291 0.598914 -2.05883
Li 2.40518 0.573104 -1.97911
Li -1.544 -0.654084 0.764605
9
 Atoms. Timestep: 850
Li -2.26139 1.75617 -0.349817
Li -0.991904 1.31008 2.77955
Li 0.411259 2.07045 0.285482
Li 0.185712 -2.25586 3.30832
Li -0.167633 -2.92808 -1.59641
Li 1.0122 -0.471425 0.221603
Li -0.630722 0.403878 -1.77334
Li 2.54777 0.310017 -1.86651
Li -1.53649 -0.881642 0.755095
9
 Atoms. Timestep: 900
Li -2.27174 2.16142 -0.68795
Li -0.73919 1.31457 2.58192
Li 0.285437 2.34073 0.278424
Li 0.0956588 -2.07903 2.73299
Li -0.331853 -2.78929 -1.66282
Li 1.16477 -0.677163 0.537066
Li -0.37879 -0.132432 -1.63849
Li 2.58005 0.18606 -1.808
Li -1.61549 -1.13277 0.912881
9
 Atoms. Timestep: 950
Li -2.29537 2.2936 -0.862394
Li -0.724641 0.67233 2.58337
Li 0.50967 2.50728 -0.347904
Li 0.0193155 -2.29336 2.75152
Li -0.366814 -2.83178 -1.56899
Li 1.34229 -0.652547 0.575402
Li -0.251908 0.0711957 -1.41303
Li 2.45556 0.143145 -1.69859
Li -1.65472 -0.852751 0.651057
9
 Atoms. Timestep: 1000
Li -2.16 2.15068 -0.842233
Li -0.454593 -0.0401104 2.59805
Li 0.84567 2.76436 -0.790574
Li -0.108876 -2.61837 2.95681
Li -0.272997 -2.73924 -1.32062
Li 1.1913 -0.59519 0.701876
Li -0.363041 0.400114 -1.67371
Li 2.46182 0.313574 -1.79434
Li -1.854 -0.717777 0.242258
9
 Atoms. Timestep: 1050
Li -2.01213 1.94782 -0.562646
Li -0.581372 -0.280161 2.94926
Li 1.19347 3.07906 -1.08452
Li -0.0900574 -3.12462 2.82117
Li -0.125802 -2.28988 -1.08931
Li 0.906658 -0.729302 0.408618
Li -0.257638 0.215434 -2.22995
Li 2.40683 0.622604 -1.81781
Li -1.91291 -0.656383 0.113659
9
 Atoms. Timestep: 1100
Li -1.66127 1.95571 -0.323255
Li -0.865791 -0.527148 3.04498
Li 1.23862 3.20301 -1.33155
Li 0.022348 -3.48333 2.3819
Li -0.354295 -2.58426 -1.68634
Li 0.911987 -0.0564786 0.54436
Li -0.271184 0.107312 -2.32779
Li 2.35115 0.796208 -1.5965
Li -1.62957 -0.745117 0.296694
9
 Atoms. Timestep: 1150
Li -1.09114 2.01534 -0.160692
Li -1.03045 -0.926525 2.94133
Li 0.908529 3.31303 -1.42872
Li 0.140536 -3.46546 1.72763
Li -0.489017 -2.68299 -2.1351
Li 0.745634 0.578531 0.673624
Li -0.333912 0.164288 -1.90385
Li 2.45944 0.730044 -1.45164
Li -1.39414 -1.15611 0.331591
9
 Atoms. Timestep: 1200
Li -1.4698 2.36787 0.0774792
Li -0.999023 -1.35606 2.9202
Li 0.715858 3.17905 -1.5503
Li 0.302791 -3.17577 0.985432
Li -0.513314 -2.51531 -2.39653
Li 0.951337 0.518034 1.10161
Li -0.138011 0.234951 -1.53879
Li 2.46051 0.759166 -1.35691
Li -1.27454 -1.50821 0.0687352
9
 Atoms. Timestep: 1250
Li -1.96533 2.46056 0.381032
Li -0.830448 -1.76466 2.56837
Li 0.621417 2.8732 -1.59919
Li 0.983403 -3.18433 0.528701
Li -0.367975 -2.133 -2.49769
Li 0.806477 0.050741 1.23136
Li -0.138038 0.46353 -1.37395
Li 2.6487 0.919226 -1.0731
Li -1.6631 -1.21429 0.0058118
9
 Atoms. Timestep: 1300
Li -2.20737 2.22144 0.546481
Li -0.698599 -2.41557 2.25267
Li 0.626988 3.04176 -1.48826
Li 1.44679 -2.78789 0.0628814
Li -0.093348 -1.80092 -2.41942
Li 0.615658 -0.446339 0.90532
Li -0.294464 0.590593 -1.28293
Li 2.74849 1.06206 -0.625204
Li -2.05432 -0.99123 0.23225
9
 Atoms. Timestep: 1350
Li -2.23806 1.72826 0.588634
Li -0.678156 -3.21569 1.97731
Li 0.78971 3.47814 -1.2227
Li 1.8907 -2.63658 -0.524943
Li 0.25805 -1.7204 -2.26265
Li 0.44824 -0.466828 0.742012
Li -0.591863 0.964341 -1.35663
Li 2.42159 1.13021 -0.170036
Li -2.27931 -0.749495 0.575025
9
 Atoms. Timestep: 1400
Li -2.23939 1.96124 0.761339
Li -0.64668 -3.59805 1.47579
Li 0.945939 3.74751 -0.830808
Li 2.54494 -2.68924 -0.697218
Li 0.318714 -1.25648 -2.1955
Li 0.161616 -0.670013 0.592847
Li -0.730038 1.04231 -1.48058
Li 1.93785 1.28687 0.0855969
Li -2.3992 -1.24201 0.933867
9
 Atoms. Timestep: 1450
Li -2.1237 2.06167 0.921784
Li -0.639753 -3.5588 0.881782
Li 0.875275 3.86465 -0.458026
Li 2.8703 -2.52533 -0.723189
Li 0.641557 -1.05305 -2.18509
Li 0.0380744 -1.12322 0.401341
Li -0.772695 1.36976 -1.27935
Li 1.46698 1.32998 0.180032
Li -2.63835 -1.68633 1.32043
9
 Atoms. Timestep: 1500
Li -1.9875 2.03531 1.22838
Li -0.771945 -3.86692 0.400265
Li 0.525774 3.95676 -0.183251
Li 2.78794 -2.16992 -0.655726
Li 1.14361 -0.862822 -2.32461
Li -0.203333 -1.04138 0.270364
Li -0.800725 1.54506 -1.27491
Li 1.36028 1.02064 0.420219
Li -2.54871 -1.8202 1.67868
9
 Atoms. Timestep: 1550
Li -1.70801 1.86479 1.46056
Li -0.987026 -3.97466 0.0743653
Li 0.0416767 3.64155 0.098137
Li 2.51843 -1.81719 -0.261695
Li 1.34582 -0.390789 -2.36642
Li -0.632072 -1.07298 -0.175516
Li -0.717391 1.44043 -1.27985
Li 1.57 0.994875 0.567921
Li -2.15958 -1.76056 1.99164
9
 Atoms. Timestep: 1600
Li -1.41092 1.25573 1.56101
Li -1.22422 -3.6811 -0.0320229
Li -0.210246 3.42457 0.361622
Li 1.99522 -1.50369 0.274447
Li 1.40202 0.0982779 -2.24304
Li -0.779077 -1.30658 -0.678065
Li -0.63342 1.33144 -1.21856
Li 1.46107 0.969238 0.421111
Li -1.56706 -1.53076 2.224
9
 Atoms. Timestep: 1650
Li -1.19871 0.939433 1.33888
Li -1.5496 -3.73299 0.309162
Li -0.196875 3.57043 0.60603
Li 1.29069 -1.69108 0.652333
Li 1.69711 0.140031 -2.05957
Li -0.650139 -1.12032 -1.07665
Li -1.10513 1.52335 -1.25217
Li 1.19963 1.3753 0.377054
Li -0.680532 -1.82177 2.30954
9
 Atoms. Timestep: 1700
Li -1.28014 0.976384 1.14882
Li -1.7394 -3.47848 0.790319
Li -0.401403 3.75353 0.773611
Li 1.34535 -1.62945 0.339718
Li 1.82855 -0.0410821 -1.8669
Li -0.723014 -0.941008 -1.33969
Li -1.43934 1.82883 -1.51583
Li 1.41039 1.37554 0.307823
Li -0.394348 -2.55157 3.03705
9
 Atoms. Timestep: 1750
Li -1.35385 0.863114 0.919985
Li -1.77175 -2.91013 1.24423
Li -0.591025 3.54965 0.717983
Li 1.46196 -1.56253 0.167916
Li 1.96533 -0.286676 -2.2184
Li -0.988411 -0.726717 -1.36832
Li -1.44886 2.02409 -1.62088
Li 1.42391 1.39085 0.397823
Li -0.249915 -2.96105 3.80941
9
 Atoms. Timestep: 1800
Li -1.42454 0.663333 0.870256
Li -1.57366 -2.04595 1.71442
Li -0.633079 3.24367 0.581451
Li 1.23045 -1.49688 0.252967
Li 1.87941 -0.373409 -2.63003
Li -0.998631 -0.746563 -1.36355
Li -1.25061 2.03796 -1.65063
Li 1.22506 1.20422 0.249559
Li -0.115202 -3.04605 4.27998
9
 Atoms. Timestep: 1850
Li -1.61858 0.91502 0.898209
Li -1.09774 -1.55606 2.33217
Li -0.488169 3.25093 0.687702
Li 0.83684 -1.61549 0.371508
Li 1.49938 -0.477703 -2.6724
Li -0.846467 -1.01263 -1.56024
Li -0.949516 1.65557 -1.8421
Li 0.968674 1.08525 -0.213691
Li -0.0155099 -2.77678 4.42165
9
 Atoms. Timestep: 1900
Li -1.87584 1.09775 0.529048
Li -0.91672 -1.09618 2.57762
Li -0.15939 3.48803 0.58306
Li 0.711436 -1.89356 0.565073
Li 1.26304 -0.491296 -2.63044
Li -1.2433 -1.36577 -1.55541
Li -1.03286 1.43719 -2.20294
Li 1.18799 0.803729 -0.306302
Li 0.364954 -2.51753 4.83859
9
 Atoms. Timestep: 1950
Li -1.87865 0.989257 0.110598
Li -0.988766 -0.366812 2.51134
Li 0.203279 3.45371 0.263716
Li 0.643826 -2.03174 0.448955
Li 0.983524 -0.594825 -2.66913
Li -1.63433 -1.59552 -1.24541
Li -1.07259 1.10385 -2.40221
Li 1.27146 0.584538 0.00285163
Li 0.841279 -2.11859 5.21348
9
 Atoms. Timestep: 2000
Li -1.73662 0.895976 0.00733471
Li -0.864995 0.194703 2.28497
Li 0.454104 3.04633 -0.183309
Li 0.462453 -2.10231 0.310365
Li 0.862923 -1.04518 -2.41146
Li -1.79735 -1.57965 -0.930224
Li -1.15219 0.855543 -2.58318
Li 1.03024 0.545313 0.180457
Li 1.23405 -1.45509 5.26835
9
 Atoms. Timestep: 2050
Li -1.78437 1.28531 -0.128337
Li -0.462883 0.339399 2.49761
Li 0.411332 2.85675 -0.775394
Li 0.429644 -2.37656 0.488243
Li 0.811789 -1.57197 -1.98453
Li -1.98112 -1.53776 -0.947088
Li -1.18074 0.620885 -2.76952
Li 0.891615 0.241884 0.140501
Li 1.52571 -0.595231 5.02553
9
 Atoms. Timestep: 2100
Li -1.79984 1.45824 -0.0561604
Li -0.162113 0.274052 2.6434
Li 0.275247 2.6535 -1.44475
Li 0.264034 -2.84568 1.06626
Li 0.606198 -1.84295 -1.9331
Li -1.88674 -1.36233 -0.914358
Li -0.913466 0.28839 -2.63636
Li 0.808457 0.128737 -0.122902
Li 1.67029 0.399726 4.47166
9
 Atoms. Timestep: 2150
Li -1.73085 1.31665 0.0571211
Li -0.239023 -0.0113435 2.20461
Li 0.256556 2.58681 -1.93338
Li 0.0726829 -2.88238 1.37326
Li 0.499096 -2.31057 -1.9027
Li -1.74477 -1.3753 -0.371911
Li -0.58583 0.124408 -2.58003
Li 0.592629 0.121088 -0.246638
Li 1.96122 1.46106 3.95637
9
 Atoms. Timestep: 2200
Li -1.72711 1.30959 0.113197
Li -0.582708 -0.299116 2.05299
Li 0.325304 2.80405 -1.98404
Li 0.0969666 -2.81257 1.48211
Li 0.431325 -2.68827 -1.63603
Li -1.61323 -1.44184 -0.0441236
Li -0.730393 -0.384798 -2.70637
Li 1.00038 -0.0152874 -0.514918
Li 2.10406 2.43562 3.26923
9
 Atoms. Timestep: 2250
Li -1.54319 1.32266 -0.0279226
Li -0.804209 -0.192256 2.26055
Li 0.262834 2.66988 -1.77489
Li 0.556796 -3.09054 1.48436
Li 0.40807 -2.83834 -1.1786
Li -1.79962 -1.50802 -0.361358
Li -0.86414 -0.659778 -2.56982
Li 1.23168 -0.162213 -0.742454
Li 2.06718 3.24961 2.44599
9
 Atoms. Timestep: 2300
Li -1.38855 0.971552 -0.112294
Li -0.959122 -0.32075 2.15839
Li 0.345165 2.4019 -1.55462
Li 0.942477 -3.05833 1.60782
Li 0.463469 -2.7834 -1.15727
Li -2.0176 -1.63089 -0.0110074
Li -0.721392 -0.573717 -2.59479
Li 1.16601 -0.174822 -0.7866
Li 1.86932 3.85769 1.55226
9
 Atoms. Timestep: 2350
Li -1.48625 0.721248 -0.239085
Li -0.871747 -0.717685 2.2533
Li 0.674678 2.31966 -1.51275
Li 1.18822 -2.73837 1.68968
Li 0.385669 -2.57367 -1.32284
Li -2.02366 -2.11022 0.082835
Li -0.760707 -0.40977 -2.43307
Li 1.22567 -0.0721752 -0.369836
Li 1.51349 4.18984 0.610959
9
 Atoms. Timestep: 2400
Li -1.58895 0.800658 0.0607069
Li -0.771913 -1.07414 2.25819
Li 0.729722 2.0759 -1.50392
Li 1.3727 -2.31885 1.39577
Li 0.478014 -2.38848 -1.27958
Li -1.86934 -2.57994 -0.00626952
Li -0.700159 -0.20249 -2.47447
Li 1.21615 -0.117683 0.25666
Li 1.07638 4.36019 -0.176771
9
 Atoms. Timestep: 2450
Li -1.55426 0.771387 0.413265
Li -0.981698 -1.18572 2.06291
Li 0.736873 1.87662 -1.54489
Li 1.8157 -2.68697 1.16707
Li 0.831958 -2.07415 -1.27856
Li -1.67903 -2.72917 -0.0125464
Li -0.8311 -0.271814 -2.40462
Li 0.999587 0.280291 0.608223
Li 0.647281 4.55111 -0.581054
9
 Atoms. Timestep: 2500
Li -1.77515 0.907412 0.323191
Li -0.893365 -1.39536 2.06975
Li 0.827634 2.07267 -1.51133
Li 2.03604 -2.89432 1.0576
Li 1.17082 -1.58779 -1.26398
Li -1.35516 -2.72461 -0.34065
Li -1.32653 -0.591969 -2.11597
Li 1.12469 0.200033 1.00589
Li 0.162121 4.55335 -0.761266
9
 Atoms. Timestep: 2550
Li -1.73988 0.968911 0.273469
Li -0.733786 -1.54606 1.97776
Li 0.746692 1.68827 -1.31052
Li 1.94429 -2.81715 0.90846
Li 1.34484 -1.01117 -1.24204
Li -0.816061 -2.84903 -0.58053
Li -1.69972 -0.49737 -1.84675
Li 1.22696 0.106142 1.09471
Li -0.371803 4.53531 -0.647577
9
 Atoms. Timestep: 2600
Li -1.47264 1.15792 0.740078
Li -0.667075 -1.68226 1.67487
Li 0.339783 1.61529 -0.944931
Li 1.71863 -2.41622 0.776463
Li 1.32961 -0.974839 -1.59247
Li -0.28396 -3.0096 -0.712384
Li -1.68911 -0.360812 -1.91544
Li 1.32342 0.252034 1.24599
Li -0.816759 4.06238 -0.363584
9
 Atoms. Timestep: 2650
Li -1.49762 1.07801 1.5208
Li -0.813842 -1.54687 1.30598
Li 0.368063 1.62646 -1.09701
Li 2.12792 -2.0303 0.83946
Li 1.23473 -1.03824 -1.86025
Li -0.476241 -3.09701 -1.25794
Li -1.27188 -0.261598 -1.58879
Li 1.28733 0.549301 1.2092
Li -1.33756 3.45301 0.216099
9
 Atoms. Timestep: 2700
Li -1.49782 0.776524 2.23436
Li -0.645726 -1.56159 0.924494
Li 0.737071 1.82095 -1.35602
Li 2.25057 -1.75418 0.654874
Li 1.40849 -0.999157 -1.89452
Li -0.767707 -2.97267 -1.58865
Li -1.35984 -0.317129 -1.19996
Li 1.11704 0.798488 1.14659
Li -1.81208 3.04692 0.815735
9
 Atoms. Timestep: 2750
Li -1.46646 0.221743 2.85142
Li -0.213932 -1.93313 1.24287
Li 0.897838 1.98433 -1.62386
Li 2.29336 -1.48877 0.529959
Li 1.32143 -0.841436 -1.89709
Li -0.967152 -2.66418 -1.7409
Li -1.47422 0.239524 -1.37593
Li 0.825975 0.800995 1.01224
Li -1.99421 2.63356 1.22628
9
 Atoms. Timestep: 2800
Li -1.35132 -0.251841 3.05756
Li -0.206222 -2.03737 1.42719
Li 0.92753 2.08083 -1.69376
Li 2.59221 -1.29417 0.53036
Li 0.944259 -0.579079 -1.98138
Li -1.12635 -2.09292 -1.6328
Li -1.26306 0.687466 -1.25182
Li 0.329189 0.67246 0.656503
Li -1.83304 1.88287 1.60613
9
 Atoms. Timestep: 2850
Li -1.24457 -0.763985 3.35374
Li -0.0990925 -2.16864 1.18903
Li 1.04402 2.46965 -1.6093
Li 2.55623 -1.12759 0.412477
Li 1.07505 -0.408985 -1.92471
Li -1.54445 -1.67551 -1.20414
Li -1.77643 1.0647 -1.33489
Li 0.55157 0.33377 0.614523
Li -1.74622 1.45366 1.68513
9
 Atoms. Timestep: 2900
Li -1.16359 -1.15928 3.45808
Li 0.0504328 -2.41787 0.898535
Li 0.921511 2.59943 -1.30802
Li 2.79126 -1.46624 0.184287
Li 1.10438 -0.306036 -1.88568
Li -1.81744 -1.2203 -0.660451
Li -1.91992 1.43801 -1.20627
Li 0.496867 0.642067 0.460171
Li -1.81869 1.16184 1.6444
9
 Atoms. Timestep: 2950
Li -1.10596 -1.31525 3.04434
Li 0.256136 -2.31067 0.804875
Li 0.681635 2.75121 -1.14931
Li 2.64264 -1.7292 -0.0705785
Li 1.04547 -0.37769 -2.06998
Li -1.90548 -0.784497 -0.127241
Li -1.65212 1.8206 -0.906715
Li 0.603123 0.472848 0.627937
Li -2.05461 0.818245 1.74714
9
 Atoms. Timestep: 3000
Li -1.18161 -1.32113 2.63236
Li 0.246838 -2.49407 0.631962
Li 0.987257 3.01546 -1.0891
Li 2.58563 -1.7546 -0.444239
Li 0.833563 -0.435671 -2.02441
Li -1.81427 -0.951622 -0.177634
Li -1.69099 1.82444 -0.423652
Li 0.583086 0.298205 0.791813
Li -2.12653 1.21305 2.21009
9
 Atoms. Timestep: 3050
Li -1.43888 -1.05445 2.31528
Li 0.300982 -3.04129 0.283735
Li 1.17482 2.99117 -0.907754
Li 2.64469 -1.67675 -0.710997
Li 0.344863 -0.392541 -1.77606
Li -1.71627 -1.05539 -0.327445
Li -1.47928 1.66804 -0.0895533
Li 0.523631 0.285716 0.769162
Li -1.96763 1.68948 2.63568
9
 Atoms. Timestep: 3100
Li -1.62434 -0.594517 2.08263
Li 0.180106 -3.05519 0.0439467
Li 1.09424 2.62913 -0.600865
Li 2.41673 -1.53783 -0.789194
Li 0.248765 -0.2084 -1.91367
Li -1.94916 -1.45787 -0.52192
Li -1.29911 1.60192 -0.0821638
Li 0.895012 0.0137748 0.943455
Li -1.55757 2.01317 2.98808
9
 Atoms. Timestep: 3150
Li -1.79558 -0.196906 1.95358
Li 0.0467858 -2.73616 0.0106603
Li 1.20012 2.13873 -0.325921
Li 2.25125 -1.54808 -0.936402
Li 0.261544 0.0780311 -1.92384
Li -2.29024 -1.66686 -0.821359
Li -1.30531 1.12886 -0.0940366
Li 1.03051 -0.0994658 1.05983
Li -0.924588 2.2675 3.06344
9
 Atoms. Timestep: 3200
Li -2.00034 -0.39041 2.30003
Li -0.201642 -2.26342 0.231463
Li 1.4573 1.97888 -0.229668
Li 2.37066 -1.65278 -1.18411
Li 0.483577 -0.0507266 -2.10159
Li -2.52835 -1.49445 -1.06259
Li -1.56093 1.07513 -0.393366
Li 0.728841 -0.218685 1.31942
Li -0.15799 2.31773 2.83185
9
 Atoms. Timestep: 3250
Li -1.98777 -0.405249 2.21256
Li -0.652333 -2.0821 0.228889
Li 1.43413 1.84594 -0.230967
Li 2.44434 -1.88099 -1.01694
Li 0.517336 -0.214678 -2.22396
Li -2.68108 -1.26119 -1.30187
Li -1.51987 0.920871 -0.250936
Li 0.622847 -0.0924945 1.49195
Li 0.568528 2.38558 2.43788
9
 Atoms. Timestep: 3300
Li -2.05517 -0.359367 2.0282
Li -1.05577 -2.02812 0.107754
Li 1.25254 1.72704 -0.391555
Li 2.25162 -2.04694 -0.570504
Li 0.333875 -0.375245 -1.97284
Li -2.8972 -1.10831 -1.6728
Li -1.0247 0.779314 -0.103456
Li 1.0026 -0.440214 1.3112
Li 1.12068 2.96687 2.1814
9
 Atoms. Timestep: 3350
Li -2.27413 -0.397035 2.19009
Li -1.23163 -2.07255 -0.0360945
Li 1.64218 1.87127 -0.644259
Li 1.92894 -2.41718 -0.350525
Li 0.353277 -0.865631 -1.81453
Li -2.87943 -0.837955 -1.96135
Li -1.26562 0.715057 -0.0870335
Li 1.29464 -0.202323 1.37184
Li 1.55714 3.21268 1.7858
9
 Atoms. Timestep: 3400
Li -2.42492 -0.465904 2.23823
Li -1.31065 -2.05273 0.20862
Li 1.74967 1.78255 -0.929581
Li 1.63967 -3.05868 -0.170443
Li 0.379505 -1.02451 -1.85266
Li -2.55419 -0.607158 -2.07351
Li -1.20857 0.700061 -0.160982
Li 1.19297 0.44552 1.30862
Li 1.85963 3.178 1.42015
9
 Atoms. Timestep: 3450
Li -2.48332 -0.318364 2.07861
Li -1.18563 -1.98273 0.415845
Li 1.55476 1.60273 -1.45484
Li 1.11944 -3.41561 0.0651636
Li 0.446048 -1.01579 -1.69945
Li -2.13936 -0.664926 -2.1306
Li -0.999508 0.771369 -0.195423
Li 1.11708 0.67257 1.31835
Li 2.07864 3.14576 1.15533
9
 Atoms. Timestep: 3500
Li -2.52368 0.14234 1.84926
Li -1.14635 -1.66567 0.456773
Li 1.13827 1.5166 -1.72425
Li 0.786452 -3.66898 0.204011
Li 0.85777 -1.16749 -1.34286
Li -1.9726 -0.995563 -2.17663
Li -1.05566 0.971277 -0.300415
Li 1.3486 0.379169 1.39781
Li 2.23498 3.19521 0.813506
9
 Atoms. Timestep: 3550
Li -2.70531 0.801043 1.75239
Li -1.14147 -1.43081 0.632965
Li 1.00462 1.70176 -1.86907
Li 0.650001 -3.78447 0.266786
Li 1.17597 -1.37504 -0.963546
Li -1.6439 -1.3596 -2.03651
Li -1.0615 1.08862 -0.34686
Li 1.3871 0.136262 1.01311
Li 2.1258 2.86093 0.437163
9
 Atoms. Timestep: 3600
Li -2.94638 1.39799 1.75216
Li -0.921367 -1.40134 1.07709
Li 1.10616 1.76263 -2.19576
Li 0.424311 -3.67665 0.38085
Li 1.29256 -1.67763 -1.32101
Li -1.19562 -1.61302 -1.77754
Li -1.01103 1.05222 -0.420788
Li 1.19857 0.161568 0.954957
Li 1.92335 2.58917 0.249949
9
 Atoms. Timestep: 3650
Li -2.98306 1.84429 1.57234
Li -1.2008 -1.40769 1.49116
Li 0.987835 1.58316 -2.51754
Li 0.249374 -3.47854 0.418289
Li 1.8169 -1.70522 -1.60324
Li -1.22868 -1.76643 -1.33095
Li -0.867144 0.808565 -0.507094
Li 1.38078 -0.0600427 0.842257
Li 1.74526 2.76033 0.264286
9
 Atoms. Timestep: 3700
Li -2.79527 2.0922 1.21021
Li -1.65838 -1.23982 1.79461
Li 0.838633 1.35456 -2.43821
Li 0.446857 -3.20379 0.463988
Li 2.04 -1.56043 -1.71512
Li -1.35123 -1.86544 -0.976586
Li -0.704989 0.667396 -0.385773
Li 1.76764 -0.213616 0.484056
Li 1.29617 2.55898 0.241846
9
 Atoms. Timestep: 3750
Li -2.4809 2.16544 0.786317
Li -1.90492 -0.973152 1.85831
Li 0.853282 1.10167 -2.1656
Li 1.03255 -2.78803 0.719644
Li 1.92995 -1.53158 -2.13139
Li -1.69287 -1.87692 -0.93319
Li -0.823441 0.33922 0.0250575
Li 1.9729 -0.197581 0.392913
Li 0.92283 2.38966 0.291836
9
 Atoms. Timestep: 3800
Li -2.29504 2.32488 0.509097
Li -2.29163 -1.03034 2.19658
Li 0.919553 0.977891 -1.87415
Li 1.3506 -2.34146 0.807862
Li 1.62117 -1.56604 -2.44701
Li -2.01326 -2.29856 -0.918019
Li -0.525207 -0.0268862 0.0619474
Li 2.21209 0.166824 0.217512
Li 0.717333 2.48521 0.557892
9
 Atoms. Timestep: 3850
Li -2.00793 2.20743 0.231418
Li -2.51967 -1.10515 2.32839
Li 0.935325 1.43083 -2.05244
Li 1.4088 -2.06465 0.738497
Li 1.24315 -1.65325 -2.44474
Li -2.17593 -2.63334 -0.776052
Li -0.556804 -0.458938 0.429335
Li 2.74947 0.686668 0.144154
Li 0.469947 2.36433 0.864466
9
 Atoms. Timestep: 3900
Li -2.11071 1.79994 -0.131748
Li -2.61573 -1.20068 2.28462
Li 0.805626 1.7822 -1.79925
Li 1.77742 -1.8881 0.503245
Li 0.776439 -1.50983 -2.09917
Li -2.12666 -2.72031 -0.490976
Li -0.783434 -0.349584 0.45255
Li 2.94751 1.03567 -0.0118907
Li 0.70177 1.92073 1.16545
9
 Atoms. Timestep: 3950
Li -2.25105 1.62307 -0.520361
Li -2.62928 -1.34342 2.11573
Li 0.494174 1.92952 -1.16791
Li 2.07652 -1.49227 0.283555
Li 0.253485 -1.1945 -1.81222
Li -1.93049 -2.61628 -0.15471
Li -0.586323 -0.476816 0.421222
Li 3.02364 1.11612 -0.308316
Li 0.734822 1.42771 1.45539
9
 Atoms. Timestep: 4000
Li -2.43201 1.33785 -0.760621
Li -2.71417 -1.40839 2.13788
Li 0.200731 1.86232 -0.581351
Li 2.09916 -1.11701 0.233477
Li 0.0215194 -0.998527 -2.30465
Li -1.7535 -2.82671 -0.229629
Li -0.580708 -0.40241 0.754379
Li 2.95243 1.24364 -0.615687
Li 1.20569 1.38526 2.11724
9
 Atoms. Timestep: 4050
Li -2.70189 0.79149 -0.79004
Li -2.84453 -1.49783 2.21848
Li 0.286689 1.93717 -0.112429
Li 1.84309 -1.01889 0.227553
Li -0.156744 -0.679352 -2.31399
Li -1.47399 -2.84587 -0.455999
Li -0.70105 -0.468612 0.769171
Li 2.82681 1.64489 -0.912095
Li 1.7476 1.3086 2.52795
9
 Atoms. Timestep: 4100
Li -2.8066 0.203603 -0.775384
Li -2.93557 -1.66073 2.19591
Li 0.234057 2.04453 0.298026
Li 1.71428 -0.754106 0.07504
Li -0.284749 -0.312077 -1.80624
Li -1.18781 -2.65059 -0.749607
Li -0.834518 -0.471182 0.865886
Li 2.72414 1.7718 -1.08366
Li 2.05462 1.08214 2.48736
9
 Atoms. Timestep: 4150
Li -3.02427 -0.323323 -0.776606
Li -3.01224 -1.85314 2.08757
Li 0.268137 2.01448 0.561196
Li 1.85183 -0.510427 -0.00804188
Li -0.322525 0.297482 -1.48691
Li -1.03071 -2.43786 -1.0096
Li -0.716523 -0.409138 1.38203
Li 2.46167 1.72682 -1.10079
Li 2.08924 0.811 2.12499
9
 Atoms. Timestep: 4200
Li -3.03935 -0.751903 -0.455501
Li -2.94139 -1.9823 1.78158
Li 0.250942 2.24459 0.726089
Li 1.82514 -1.08682 -0.252493
Li -0.388288 0.747883 -1.43949
Li -0.816146 -1.99974 -1.05095
Li -0.637326 -0.466616 1.62908
Li 2.19973 1.89111 -1.19354
Li 2.04047 0.758792 2.1958
9
 Atoms. Timestep: 4250
Li -3.07478 -0.457834 -0.406209
Li -2.70557 -2.37756 1.89481
Li 0.0959122 2.47731 0.964033
Li 1.86314 -1.32037 -0.272509
Li -0.432423 0.800193 -1.36699
Li -0.770657 -1.83125 -1.05106
Li -0.355625 -0.350555 1.22401
Li 1.97731 1.80062 -1.12994
Li 1.87244 0.627717 2.14101
9
 Atoms. Timestep: 4300
Li -2.89294 0.0776764 -0.252449
Li -2.18546 -2.57533 1.91557
Li -0.0462884 2.4723 0.949854
Li 2.17726 -1.11957 -0.0245588
Li -0.675972 0.901928 -1.53037
Li -1.31496 -2.16623 -1.17861
Li -0.460524 -0.424456 0.844597
Li 2.01302 1.55376 -0.723269
Li 1.87956 0.634961 1.94001
9
 Atoms. Timestep: 4350
Li -2.77378 0.589257 0.0614912
Li -1.57526 -2.58944 1.71954
Li -0.284688 2.21864 0.698185
Li 2.2489 -1.30428 0.0654182
Li -0.634474 1.02264 -1.99796
Li -1.82413 -2.36677 -1.17115
Li -0.316293 -0.505601 0.785946
Li 1.99577 1.42502 -0.56558
Li 1.72744 0.82705 2.18061
9
 Atoms. Timestep: 4400
Li -2.66713 0.880254 0.298142
Li -1.1385 -2.74662 1.54691
Li -0.457716 2.34597 0.356281
Li 2.28258 -1.715 0.174206
Li -0.399092 0.86008 -2.05563
Li -2.21727 -2.2235 -0.921505
Li -0.00215152 -0.410423 0.275166
Li 1.88614 1.30244 -0.716809
Li 1.38695 0.962412 2.56004
9
 Atoms. Timestep: 4450
Li -2.72944 0.694624 0.38215
Li -0.618021 -2.72717 1.41462
Li -0.109085 2.87478 0.0558942
Li 2.40886 -2.09138 0.286344
Li -0.367507 0.661317 -2.33889
Li -2.44979 -1.76761 -0.644724
Li -0.176193 -0.555302 0.165437
Li 2.0156 1.0412 -0.599358
Li 0.842256 1.04628 2.45905
9
 Atoms. Timestep: 4500
Li -2.5389 0.959353 0.599079
Li -0.177992 -2.91991 1.46415
Li 0.227638 2.92145 -0.266165
Li 2.16337 -2.21873 0.415013
Li -0.321572 0.479843 -2.5606
Li -2.56036 -1.7152 -0.570534
Li -0.194449 -0.329154 0.0158803
Li 2.15566 0.728278 -0.339349
Li 0.228501 1.17961 2.03417
9
 Atoms. Timestep: 4550
Li -2.34517 1.45753 0.790164
Li -0.293215 -2.96521 1.59722
Li 0.488898 2.51613 -0.61448
Li 2.04851 -1.96114 0.3157
Li -0.123365 0.349133 -2.77583
Li -2.58183 -1.92819 -0.573692
Li -0.302249 -0.629277 -0.196185
Li 2.35909 0.552993 -0.0719739
Li -0.0928216 1.59644 1.90656
9
 Atoms. Timestep: 4600
Li -2.58687 1.72499 0.491131
Li -0.724133 -2.75619 1.64325
Li 0.412953 1.98381 -1.05972
Li 2.01926 -2.16396 0.219622
Li 0.212746 0.240828 -2.94534
Li -2.65986 -2.22038 -0.541626
Li -0.208742 -0.484099 0.00602415
Li 2.4909 0.766943 0.206018
Li 0.376071 1.80014 1.94745
9
 Atoms. Timestep: 4650
Li -2.46308 1.79087 0.150276
Li -1.04268 -2.33706 1.61229
Li 0.0690104 2.04534 -1.13993
Li 1.81321 -2.37282 0.214316
Li 0.585564 -0.305068 -3.12583
Li -2.5147 -2.36124 -0.523139
Li -0.26594 -0.240527 0.227039
Li 2.63563 0.742284 0.441597
Li 0.676325 1.84142 1.7312
9
 Atoms. Timestep: 4700
Li -2.25825 1.63936 -0.0356696
Li -1.08565 -2.09036 2.03506
Li 0.0415672 2.36368 -1.21569
Li 1.32743 -2.26695 0.263195
Li 0.950619 -0.899345 -3.01536
Li -2.37986 -2.30346 -0.828381
Li -0.236138 -0.126874 0.165865
Li 2.772 0.351473 0.267677
Li 0.498246 2.06023 1.62952
9
 Atoms. Timestep: 4750
Li -2.40926 1.4838 0.0474227
Li -1.06986 -1.79917 2.25005
Li 0.388104 2.59038 -1.28492
Li 0.938663 -2.34405 0.329176
Li 1.2602 -1.43599 -2.52699
Li -1.93921 -2.03622 -0.974806
Li -0.205112 0.0710758 -0.244133
Li 2.47966 -0.0621199 0.0127698
Li 0.289902 2.20313 1.41493
9
 Atoms. Timestep: 4800
Li -2.58946 1.47789 0.221377
Li -1.02447 -1.32073 2.11882
Li 0.679272 2.72211 -1.36087
Li 0.593875 -2.64843 0.434226
Li 1.38654 -1.90708 -1.91442
Li -1.45628 -1.92712 -1.02093
Li -0.187092 0.368141 -0.748258
Li 2.37225 -0.265274 -0.148158
Li 0.0213197 2.13663 1.29371
9
 Atoms. Timestep: 4850
Li -2.59852 1.33719 0.427093
Li -1.06493 -0.562679 1.72176
Li 1.05586 3.15576 -1.46877
Li 0.513989 -3.00649 0.935726
Li 1.24012 -2.34799 -1.96991
Li -1.41763 -2.18131 -1.1852
Li -0.253761 0.448115 -1.08056
Li 2.53453 -0.135179 0.109691
Li -0.19496 1.91836 1.34155
9
 Atoms. Timestep: 4900
Li -2.91187 1.27684 0.32989
Li -0.974553 -0.684081 1.24744
Li 1.28241 3.40078 -1.35429
Li 0.461388 -3.02532 1.16997
Li 1.14325 -2.50139 -1.82863
Li -1.4175 -2.25226 -1.07618
Li -0.237713 0.255256 -1.15782
Li 2.25697 -0.000995172 0.249396
Li 0.186128 2.17142 1.31326
9
 Atoms. Timestep: 4950
Li -3.0622 1.26325 0.10917
Li -0.941171 -0.75114 1.22963
Li 1.33667 3.38317 -1.08991
Li 0.651792 -3.11508 1.04555
Li 1.20495 -2.34704 -1.50523
Li -1.63883 -2.37941 -0.915551
Li -0.223732 0.228005 -1.29564
Li 1.76475 0.0819822 0.407856
Li 0.627463 2.31449 1.06914
9
 Atoms. Timestep: 5000
Li -2.83981 1.06588 -0.072044
Li -0.96731 -0.306792 1.38319
Li 1.42566 3.40685 -1.31046
Li 0.911194 -3.28555 0.982051
Li 1.14418 -1.7986 -1.36181
Li -1.66344 -2.46805 -0.867012
Li -0.579196 0.247239 -1.51811
Li 1.64815 -0.334517 0.647853
Li 0.534019 2.21042 1.42144
9
 Atoms. Timestep: 5050
Li -2.91586 1.01525 -0.110228
Li -0.972707 -0.2443 1.41469
Li 1.34098 3.23542 -1.41376
Li 0.993556 -3.14872 0.947841
Li 1.06104 -1.60159 -1.78704
Li -1.38335 -2.23228 -0.64122
Li -0.709054 0.293446 -1.53104
Li 1.69849 -0.514403 1.06915
Li 0.364396 2.00911 1.67672
9
 Atoms. Timestep: 5100
Li -3.33313 1.1138 0.0764798
Li -1.11885 -0.500927 1.60392
Li 1.04902 2.84199 -1.32276
Li 0.948623 -2.89876 0.70581
Li 1.26849 -1.71995 -2.03735
Li -1.12018 -2.08153 -0.59052
Li -0.58678 0.594643 -1.40851
Li 1.8328 -0.366811 1.23116
Li 0.381486 1.91561 1.7341
9
 Atoms. Timestep: 5150
Li -3.34268 1.06395 0.315981
Li -1.11705 -0.452815 1.90545
Li 0.915577 2.69527 -1.00919
Li 1.13717 -2.72291 0.541349
Li 1.38895 -1.70947 -2.02071
Li -1.27093 -2.03901 -1.15676
Li -0.711923 0.408528 -0.841385
Li 1.92536 -0.15143 1.07297
Li 0.231881 1.89711 1.5733
9
 Atoms. Timestep: 5200
Li -3.06221 0.927317 0.654185
Li -1.07862 -0.680274 2.15138
Li 1.01851 2.79666 -0.758022
Li 1.06839 -2.5425 0.454111
Li 1.37366 -1.42049 -1.9711
Li -1.45124 -2.40087 -1.59232
Li -0.648883 0.274771 -0.348002
Li 1.92029 0.0709186 0.592545
Li -0.146335 2.05356 1.58139
9
 Atoms. Timestep: 5250