4
 Atoms. Timestep: 80
Li -1.54173 -2.37181 2.50557
Li -2.73006 -1.6641 0.0927359
Li -0.07164 -0.922181 0.766533
Li -0.797967 -3.609 0.0589569
4
 Atoms. Timestep: 100
Li -1.6155 -2.49674 2.54306
Li -2.74288 -1.55331 0.117254
Li -0.0781848 -0.939633 0.614595
Li -0.704827 -3.57742 0.148892
4
 Atoms. Timestep: 120
Li -1.56557 -2.41055 2.50964
Li -2.73107 -1.62775 0.105506
Li -0.0773978 -0.929168 0.718429
Li -0.767371 -3.59963 0.0902267
4
 Atoms. Timestep: 140
Li -1.56725 -2.41661 2.52832
Li -2.73869 -1.62655 0.0953792
Li -0.0690739 -0.925884 0.713229
Li -0.766379 -3.59806 0.086874
4
 Atoms. Timestep: 160
Li -1.61436 -2.49318 2.53154
Li -2.73763 -1.55435 0.123374
Li -0.0836259 -0.942254 0.617629
Li -0.705783 -3.57732 0.151254
4
 Atoms. Timestep: 180
Li -1.54198 -2.37152 2.50584
Li -2.73136 -1.66343 0.0928521
Li -0.0707956 -0.920662 0.766868
Li -0.797261 -3.61148 0.0582369
4
 Atoms. Timestep: 200
Li -1.60272 -2.47817 2.5457
Li -2.74322 -1.57262 0.107346
Li -0.074233 -0.937513 0.638364
Li -0.721225 -3.57879 0.132387
4
 Atoms. Timestep: 220
Li -1.58449 -2.43858 2.50588
Li -2.72956 -1.59961 0.119979
Li -0.0837723 -0.933575 0.682604
Li -0.743573 -3.59533 0.115333
4
 Atoms. Timestep: 240
Li -1.55167 -2.39288 2.53106
Li -2.74089 -1.64931 0.0837798
Li -0.0633182 -0.920911 0.743435
Li -0.785521 -3.604 0.065522
4
 Atoms. Timestep: 260
Li -1.61803 -2.50016 2.53084
Li -2.73539 -1.54897 0.125927
Li -0.0864795 -0.946228 0.608949
Li -0.701498 -3.57174 0.158087
4
 Atoms. Timestep: 280
Li -1.55181 -2.38434 2.50418
Li -2.733 -1.64873 0.100458
Li -0.0721116 -0.919465 0.750273
Li -0.784479 -3.61457 0.0688933
4
 Atoms. Timestep: 300
Li -1.58417 -2.45167 2.54862
Li -2.74304 -1.60015 0.0934913
Li -0.0695063 -0.935412 0.672215
Li -0.744687 -3.57987 0.109479
4
 Atoms. Timestep: 320
Li -1.60229 -2.46527 2.50378
Li -2.72859 -1.5733 0.132664
Li -0.0891337 -0.937663 0.648855
Li -0.721387 -3.59087 0.138499
4
 Atoms. Timestep: 340
Li -1.54322 -2.37884 2.53064
Li -2.74261 -1.66124 0.0788129
Li -0.0602376 -0.916809 0.760823
Li -0.795334 -3.61022 0.053529
4
 Atoms. Timestep: 360
Li -1.61207 -2.49391 2.53319
Li -2.73355 -1.55782 0.120327
Li -0.0863912 -0.949259 0.61745
Li -0.709386 -3.56611 0.152837
4
 Atoms. Timestep: 380
Li -1.56907 -2.40737 2.50136
Li -2.73476 -1.62341 0.11359
Li -0.0749315 -0.918655 0.720666
Li -0.762644 -3.61766 0.0881826
4
 Atoms. Timestep: 400
Li -1.56425 -2.42317 2.55
Li -2.74223 -1.62918 0.0797132
Li -0.0655119 -0.933617 0.708253
Li -0.769406 -3.58113 0.0858373
4
 Atoms. Timestep: 420
Li -1.61447 -2.48467 2.50501
Li -2.72837 -1.55532 0.139585
Li -0.09215 -0.941195 0.624984
Li -0.706416 -3.58592 0.154217
4
 Atoms. Timestep: 440
Li -1.54449 -2.37772 2.52652
Li -2.74374 -1.65905 0.0824628
Li -0.0601658 -0.913542 0.761259
Li -0.792999 -3.61679 0.0535592
4
 Atoms. Timestep: 460
Li -1.59755 -2.47592 2.53796
Li -2.73222 -1.57898 0.107722
Li -0.0838989 -0.951329 0.640998
Li -0.727727 -3.56088 0.137123
4
 Atoms. Timestep: 480
Li -1.58956 -2.43529 2.49874
Li -2.73638 -1.59362 0.128602
Li -0.078298 -0.918426 0.685233
Li -0.737167 -3.61977 0.111225
4
 Atoms. Timestep: 500
Li -1.54804 -2.39919 2.54832
Li -2.7409 -1.65249 0.0703033
Li -0.0633681 -0.932079 0.737884
Li -0.789086 -3.58334 0.0672881
4
 Atoms. Timestep: 520
Li -1.61776 -2.49252 2.51054
Li -2.72911 -1.55012 0.138062
Li -0.0921176 -0.944091 0.616401
Li -0.702408 -3.58037 0.1588
4
 Atoms. Timestep: 540
Li -1.55552 -2.3896 2.51906
Li -2.74403 -1.64315 0.0944688
Li -0.0628437 -0.911115 0.744942
Li -0.779011 -3.62323 0.0653329
4
 Atoms. Timestep: 560
Li -1.57782 -2.45048 2.54374
Li -2.73151 -1.60738 0.0912434
Li -0.0800171 -0.952399 0.673719
Li -0.75206 -3.55684 0.1151
4
 Atoms. Timestep: 580
Li -1.6081 -2.46154 2.49789
Li -2.73775 -1.5666 0.141082
Li -0.0811948 -0.919058 0.652591
Li -0.714352 -3.6199 0.132235
4
 Atoms. Timestep: 600
Li -1.53987 -2.38524 2.54271
Li -2.73913 -1.66425 0.0686218
Li -0.0636148 -0.930503 0.754153
Li -0.79878 -3.5871 0.058315
4
 Atoms. Timestep: 620
Li -1.61113 -2.48734 2.52032
Li -2.73104 -1.55893 0.127534
Li -0.0890136 -0.946327 0.624629
Li -0.710217 -3.57451 0.151315
4
 Atoms. Timestep: 640
Li -1.57358 -2.41124 2.50933
Li -2.74313 -1.61758 0.112277
Li -0.0676503 -0.909751 0.716468
Li -0.757046 -3.62853 0.0857253
4
 Atoms. Timestep: 660
Li -1.55773 -2.42375 2.54875
Li -2.73138 -1.6361 0.0751951
Li -0.0758817 -0.952312 0.707515
Li -0.776403 -3.55494 0.0923443
4
 Atoms. Timestep: 680
Li -1.61999 -2.48004 2.50031
Li -2.73913 -1.54885 0.147087
Li -0.0826823 -0.920754 0.630399
Li -0.699597 -3.61746 0.146003
4
 Atoms. Timestep: 700
Li -1.54194 -2.38424 2.53302
Li -2.73682 -1.66172 0.0761073
Li -0.0663179 -0.928654 0.753711
Li -0.796325 -3.59249 0.0609666
4
 Atoms. Timestep: 720
Li -1.59612 -2.47085 2.53328
Li -2.7341 -1.57949 0.109766
Li -0.0834442 -0.947827 0.646988
Li -0.727738 -3.56894 0.133764
4
 Atoms. Timestep: 740
Li -1.59404 -2.43695 2.49911
Li -2.74107 -1.58874 0.131724
Li -0.073621 -0.909776 0.683356
Li -0.732666 -3.63163 0.109609
4
 Atoms. Timestep: 760
Li -1.54232 -2.40219 2.55125
Li -2.73163 -1.65812 0.0638713
Li -0.0725372 -0.950864 0.73427
Li -0.794913 -3.55592 0.0744109
4
 Atoms. Timestep: 780
Li -1.62227 -2.48671 2.50691
Li -2.74092 -1.54446 0.144254
Li -0.0820908 -0.923499 0.623427
Li -0.69612 -3.61243 0.149207
4
 Atoms. Timestep: 800
Li -1.55372 -2.39579 2.51993
Li -2.73385 -1.64577 0.0918912
Li -0.0711448 -0.926568 0.737538
Li -0.782687 -3.59898 0.0744444
4
 Atoms. Timestep: 820
Li -1.57633 -2.44753 2.5474
Li -2.73781 -1.60676 0.0883718
Li -0.0765603 -0.948489 0.677527
Li -0.750704 -3.56432 0.110502
4
 Atoms. Timestep: 840
Li -1.61179 -2.46021 2.49063
Li -2.73848 -1.56367 0.148169
Li -0.0794729 -0.911368 0.653835
Li -0.71166 -3.63186 0.13117
4
 Atoms. Timestep: 860
Li -1.53545 -2.3909 2.54999
Li -2.73192 -1.66811 0.0604487
Li -0.0707547 -0.947955 0.747862
Li -0.80327 -3.56014 0.0654962
4
 Atoms. Timestep: 880
Li -1.61433 -2.48042 2.51757
Li -2.74322 -1.55442 0.132387
Li -0.0793184 -0.927084 0.632653
Li -0.704532 -3.60518 0.14119
4
 Atoms. Timestep: 900
Li -1.5723 -2.41638 2.50501
Li -2.73045 -1.62047 0.113067
Li -0.0773166 -0.924492 0.710333
Li -0.761334 -3.60576 0.0953933
4
 Atoms. Timestep: 920
Li -1.55651 -2.42349 2.56016
Li -2.74133 -1.6341 0.0678975
Li -0.0698094 -0.948247 0.708608
Li -0.773753 -3.56126 0.0871343
4
 Atoms. Timestep: 940
Li -1.62247 -2.47523 2.48597
Li -2.7362 -1.54841 0.157645
Li -0.0839065 -0.914439 0.634873
Li -0.698818 -3.62902 0.145313
4
 Atoms. Timestep: 960
Li -1.53897 -2.39241 2.54456
Li -2.73209 -1.66352 0.0662819
Li -0.0708546 -0.943685 0.745441
Li -0.79948 -3.56749 0.0675189
4
 Atoms. Timestep: 980
Li -1.5979 -2.46321 2.53094
Li -2.74555 -1.57639 0.113459
Li -0.0749894 -0.93123 0.65532
Li -0.722961 -3.59627 0.124079
4
 Atoms. Timestep: 1000
Li -1.59318 -2.44034 2.49052
Li -2.72731 -1.59202 0.135388
Li -0.0836516 -0.922695 0.679156
Li -0.737267 -3.61205 0.118731
4
 Atoms. Timestep: 1020
Li -1.54153 -2.40504 2.56925
Li -2.74395 -1.65471 0.0527967
Li -0.0645099 -0.947069 0.732566
Li -0.791409 -3.56028 0.0691832
4
 Atoms. Timestep: 1040
Li -1.62338 -2.47836 2.48639
Li -2.73478 -1.54676 0.157743
Li -0.0860669 -0.918719 0.630815
Li -0.697173 -3.62327 0.148851
4
 Atoms. Timestep: 1060
Li -1.55228 -2.40602 2.53547
Li -2.73222 -1.64531 0.0806355
Li -0.0726538 -0.938353 0.72795
Li -0.784242 -3.57741 0.0797477
4
 Atoms. Timestep: 1080
Li -1.57671 -2.43986 2.54482
Li -2.7471 -1.60515 0.09117
Li -0.0702396 -0.935655 0.685577
Li -0.747342 -3.58644 0.10223
4
 Atoms. Timestep: 1100
Li -1.6113 -2.46121 2.47894
Li -2.72518 -1.56738 0.154187
Li -0.0888416 -0.921356 0.651859
Li -0.716073 -3.61715 0.138817
4
 Atoms. Timestep: 1120
Li -1.53532 -2.39715 2.57313
Li -2.74542 -1.66317 0.0464776
Li -0.0615073 -0.944935 0.743345
Li -0.799154 -3.56185 0.0608447
4
 Atoms. Timestep: 1140
Li -1.614 -2.46891 2.49194
Li -2.73419 -1.55934 0.148132
Li -0.0857973 -0.923885 0.642514
Li -0.707408 -3.61497 0.141211
4
 Atoms. Timestep: 1160
Li -1.57237 -2.42788 2.52403
Li -2.73249 -1.61786 0.1008
Li -0.0755828 -0.932406 0.699977
Li -0.760956 -3.58896 0.098991
4
 Atoms. Timestep: 1180
Li -1.55584 -2.41682 2.55685
Li -2.7473 -1.63361 0.0701431
Li -0.0662601 -0.940031 0.715639
Li -0.771995 -3.57663 0.0811689
4
 Atoms. Timestep: 1200
Li -1.62219 -2.47333 2.47228
Li -2.72459 -1.5527 0.165402
Li -0.0918 -0.920578 0.635378
Li -0.702827 -3.6205 0.150743
4
 Atoms. Timestep: 1220
Li -1.53973 -2.40199 2.57121
Li -2.74584 -1.65705 0.0505032
Li -0.0611355 -0.9419 0.738054
Li -0.794703 -3.56615 0.0640325
4
 Atoms. Timestep: 1240
Li -1.59634 -2.44955 2.50158
Li -2.73408 -1.58324 0.13068
Li -0.0835387 -0.92959 0.666995
Li -0.727439 -3.60472 0.124546
4
 Atoms. Timestep: 1260
Li -1.59441 -2.45185 2.51207
Li -2.73304 -1.58798 0.122628
Li -0.0788374 -0.926359 0.668798
Li -0.735111 -3.60091 0.120305
4
 Atoms. Timestep: 1280
Li -1.54047 -2.40056 2.56508
Li -2.7461 -1.65455 0.054866
Li -0.0639732 -0.943951 0.737574
Li -0.790857 -3.56803 0.0662768
4
 Atoms. Timestep: 1300
Li -1.62311 -2.47341 2.4717
Li -2.72563 -1.55159 0.16656
Li -0.0918733 -0.920426 0.634035
Li -0.700795 -3.62167 0.151502
4
 Atoms. Timestep: 1320
Li -1.5538 -2.41819 2.56379
Li -2.74528 -1.6379 0.0641339
Li -0.0633433 -0.938185 0.717975
Li -0.778979 -3.57283 0.0778961
4
 Atoms. Timestep: 1340
Li -1.57457 -2.42566 2.51356
Li -2.73411 -1.61254 0.109055
Li -0.0800884 -0.935426 0.697973
Li -0.752625 -3.59347 0.103212
4
 Atoms. Timestep: 1360
Li -1.61308 -2.4713 2.50159
Li -2.73396 -1.5631 0.141495
Li -0.0814585 -0.920714 0.642579
Li -0.712907 -3.61199 0.138135
4
 Atoms. Timestep: 1380
Li -1.53439 -2.39562 2.5683
Li -2.74379 -1.66276 0.0485693
Li -0.0639846 -0.947015 0.745446
Li -0.799232 -3.5617 0.0614852
4
 Atoms. Timestep: 1400
Li -1.61389 -2.46148 2.4773
Li -2.72814 -1.56412 0.157424
Li -0.0889404 -0.920924 0.64832
Li -0.710426 -3.62057 0.140761
4
 Atoms. Timestep: 1420
Li -1.57398 -2.44114 2.55203
Li -2.74374 -1.61083 0.0844632
Li -0.067681 -0.93417 0.688348
Li -0.755997 -3.58096 0.0989618
4
 Atoms. Timestep: 1440
Li -1.55395 -2.40383 2.52585
Li -2.7341 -1.63994 0.0878306
Li -0.0764381 -0.940903 0.727388
Li -0.776912 -3.58242 0.0827311
4
 Atoms. Timestep: 1460
Li -1.62403 -2.4809 2.49445
Li -2.73539 -1.54916 0.153459
Li -0.0824446 -0.915902 0.628224
Li -0.699534 -3.62115 0.147668
4
 Atoms. Timestep: 1480
Li -1.53886 -2.40332 2.56606
Li -2.74068 -1.65656 0.052431
Li -0.0665885 -0.948971 0.737018
Li -0.795272 -3.55825 0.0682953
4
 Atoms. Timestep: 1500
Li -1.59692 -2.44082 2.48802
Li -2.73173 -1.58681 0.140028
Li -0.0835177 -0.922038 0.674752
Li -0.72924 -3.61743 0.121002
4
 Atoms. Timestep: 1520
Li -1.5953 -2.4645 2.53783
Li -2.74138 -1.58289 0.10717
Li -0.0731616 -0.930267 0.656879
Li -0.731562 -3.58945 0.121926
4
 Atoms. Timestep: 1540
Li -1.53931 -2.39001 2.53651
Li -2.73396 -1.65881 0.07134
Li -0.0736405 -0.945497 0.747506
Li -0.794493 -3.57278 0.0684408
4
 Atoms. Timestep: 1560
Li -1.62498 -2.47809 2.49188
Li -2.73747 -1.54907 0.15619
Li -0.0810698 -0.912282 0.629651
Li -0.697881 -3.62766 0.146077
4
 Atoms. Timestep: 1580
Li -1.55245 -2.42152 2.55879
Li -2.737 -1.63814 0.065382
Li -0.0715954 -0.949776 0.71426
Li -0.780359 -3.55767 0.0853678
4
 Atoms. Timestep: 1600
Li -1.57629 -2.41686 2.50189
Li -2.73572 -1.61388 0.118128
Li -0.0767805 -0.923654 0.706815
Li -0.752611 -3.61271 0.0969629
4
 Atoms. Timestep: 1620
Li -1.61278 -2.48202 2.52361
Li -2.73871 -1.5609 0.127583
Li -0.0783395 -0.926829 0.631677
Li -0.711571 -3.59735 0.140934
4
 Atoms. Timestep: 1640
Li -1.53392 -2.38796 2.54407
Li -2.73367 -1.66485 0.0627056
Li -0.0725581 -0.948756 0.752842
Li -0.801258 -3.56554 0.0641867
4
 Atoms. Timestep: 1660
Li -1.61597 -2.46346 2.49406
Li -2.74002 -1.56238 0.149451
Li -0.0773192 -0.910129 0.646966
Li -0.708084 -3.63113 0.133322
4
 Atoms. Timestep: 1680
Li -1.57168 -2.44552 2.54789
Li -2.73316 -1.61247 0.0844509
Li -0.0781184 -0.949532 0.682681
Li -0.758446 -3.55958 0.108779
4
 Atoms. Timestep: 1700
Li -1.55684 -2.39577 2.51647
Li -2.73935 -1.63873 0.0963147
Li -0.0702921 -0.925538 0.736487
Li -0.774916 -3.60706 0.0745262
4
 Atoms. Timestep: 1720
Li -1.62256 -2.4891 2.51167
Li -2.73634 -1.54996 0.141712
Li -0.0817906 -0.924137 0.619368
Li -0.700702 -3.6039 0.151054
4
 Atoms. Timestep: 1740
Li -1.53884 -2.39848 2.54779
Li -2.73338 -1.65689 0.0632247
Li -0.0735464 -0.95044 0.741435
Li -0.795634 -3.56129 0.0713457
4
 Atoms. Timestep: 1760
Li -1.59921 -2.44044 2.49996
Li -2.74245 -1.58565 0.135123
Li -0.0720714 -0.909581 0.676453
Li -0.727675 -3.63144 0.112262
4
 Atoms. Timestep: 1780
Li -1.59202 -2.46937 2.53549
Li -2.72974 -1.58594 0.10543
Li -0.0846648 -0.94842 0.649979
Li -0.734973 -3.56337 0.132897
4
 Atoms. Timestep: 1800
Li -1.54314 -2.38304 2.52948
Li -2.74213 -1.65541 0.0790279
Li -0.0654879 -0.927356 0.756001
Li -0.790648 -3.6013 0.0592929
4
 Atoms. Timestep: 1820
Li -1.62251 -2.48365 2.5035
Li -2.73458 -1.55249 0.1471
Li -0.082714 -0.922386 0.623641
Li -0.701602 -3.60857 0.149559
4
 Atoms. Timestep: 1840
Li -1.55282 -2.41939 2.54788
Li -2.73336 -1.63696 0.0721128
Li -0.0762913 -0.950629 0.7154
Li -0.778934 -3.56012 0.0884086
4
 Atoms. Timestep: 1860
Li -1.57859 -2.41437 2.50772
Li -2.74403 -1.61334 0.116824
Li -0.0667873 -0.910524 0.711231
Li -0.751992 -3.62887 0.0880236
4
 Atoms. Timestep: 1880
Li -1.60876 -2.4872 2.52395
Li -2.7273 -1.56491 0.123757
Li -0.0895987 -0.946646 0.62437
Li -0.715741 -3.56834 0.151722
4
 Atoms. Timestep: 1900
Li -1.5385 -2.38226 2.53933
Li -2.74404 -1.65975 0.0695827
Li -0.0632565 -0.928844 0.759704
Li -0.795608 -3.59625 0.0551873
4
 Atoms. Timestep: 1920
Li -1.61265 -2.46646 2.49945
Li -2.73324 -1.56798 0.143394
Li -0.0812083 -0.921597 0.644264
Li -0.714296 -3.61106 0.136691
4
 Atoms. Timestep: 1940
Li -1.57247 -2.44603 2.54527
Li -2.73381 -1.60982 0.0866287
Li -0.0799109 -0.949698 0.680653
Li -0.755213 -3.56155 0.111247
4
 Atoms. Timestep: 1960
Li -1.55911 -2.39146 2.51532
Li -2.74439 -1.63882 0.099098
Li -0.0629276 -0.912584 0.74265
Li -0.77498 -3.62424 0.0667317
4
 Atoms. Timestep: 1980
Li -1.618 -2.49453 2.51521
Li -2.72605 -1.55446 0.135558
Li -0.0916728 -0.944351 0.61263
Li -0.705673 -3.57376 0.160407
4
 Atoms. Timestep: 2000
Li -1.54408 -2.39422 2.54525
Li -2.74531 -1.6504 0.0693485
Li -0.0638528 -0.93006 0.745802
Li -0.788163 -3.59243 0.0634046
4
 Atoms. Timestep: 2020
Li -1.59536 -2.44107 2.49886
Li -2.73204 -1.59294 0.132477
Li -0.0780978 -0.921537 0.676804
Li -0.735897 -3.61155 0.115664
4
 Atoms. Timestep: 2040
Li -1.59302 -2.47237 2.54141
Li -2.73472 -1.58195 0.102693
Li -0.0832092 -0.948119 0.645615
Li -0.730453 -3.56466 0.134078
4
 Atoms. Timestep: 2060
Li -1.54555 -2.37732 2.52113
Li -2.7437 -1.65582 0.0862544
Li -0.0615321 -0.915319 0.762498
Li -0.790619 -3.61865 0.0539174
4
 Atoms. Timestep: 2080
Li -1.61768 -2.48925 2.51039
Li -2.72592 -1.55728 0.13865
Li -0.0903412 -0.941517 0.618187
Li -0.707467 -3.57906 0.156577
4
 Atoms. Timestep: 2100
Li -1.55832 -2.41661 2.54721
Li -2.74603 -1.6294 0.0773586
Li -0.066983 -0.931433 0.717225
Li -0.770072 -3.58966 0.082003
4
 Atoms. Timestep: 2120
Li -1.57491 -2.413 2.50044
Li -2.73088 -1.62157 0.117979
Li -0.0745702 -0.921802 0.71353
Li -0.761039 -3.61073 0.0918484
4
 Atoms. Timestep: 2140
Li -1.60956 -2.49235 2.53792
Li -2.73592 -1.5601 0.115965
Li -0.0849385 -0.946187 0.61896
Li -0.710985 -3.56847 0.150958
4
 Atoms. Timestep: 2160
Li -1.54115 -2.37554 2.52411
Li -2.74236 -1.66 0.0811859
Li -0.0631129 -0.918516 0.765485
Li -0.794775 -3.61304 0.0530213
4
 Atoms. Timestep: 2180
Li -1.60813 -2.47219 2.50965
Li -2.72673 -1.57285 0.133118
Li -0.0858629 -0.937976 0.640002
Li -0.72068 -3.58409 0.141026
4
 Atoms. Timestep: 2200
Li -1.57742 -2.44452 2.54594
Li -2.74604 -1.60184 0.0906039
Li -0.0718109 -0.933481 0.680903
Li -0.746132 -3.58726 0.106348
4
 Atoms. Timestep: 2220
Li -1.55631 -2.38853 2.50271
Li -2.72993 -1.64698 0.104242
Li -0.0718648 -0.922036 0.745511
Li -0.783294 -3.60955 0.0713358
4
 Atoms. Timestep: 2240
Li -1.61835 -2.50139 2.5362
Li -2.7373 -1.54957 0.123043
Li -0.0840968 -0.943871 0.607153
Li -0.701652 -3.57227 0.157402
4
 Atoms. Timestep: 2260
Li -1.54659 -2.38673 2.52386
Li -2.74061 -1.65028 0.0846176
Li -0.0676356 -0.922306 0.75087
Li -0.786561 -3.60778 0.0644567
4
 Atoms. Timestep: 2280
Li -1.59194 -2.44692 2.51218
Li -2.72834 -1.59752 0.121208
Li -0.0792958 -0.933611 0.67289
Li -0.74182 -3.58905 0.11752
4
 Atoms. Timestep: 2300
Li -1.59657 -2.47177 2.54287
Li -2.74522 -1.57448 0.104944
Li -0.0769693 -0.936379 0.645632
Li -0.722639 -3.58447 0.130349
4
 Atoms. Timestep: 2320
Li -1.54398 -2.37315 2.50427
Li -2.7294 -1.66294 0.095104
Li -0.0709968 -0.922138 0.765134
Li -0.797031 -3.60887 0.0592915
4
 Atoms. Timestep: 2340
Li -1.61768 -2.49737 2.53706
Li -2.73885 -1.55297 0.12231
Li -0.0803273 -0.940938 0.612816
Li -0.704544 -3.57582 0.151612
4
 Atoms. Timestep: 2360
Li -1.56007 -2.40845 2.52077
Li -2.73848 -1.62907 0.0950582
Li -0.0743961 -0.926943 0.722432
Li -0.768458 -3.60263 0.0855376
4
 Atoms. Timestep: 2380
Li -1.57314 -2.41885 2.51633
Li -2.73053 -1.62537 0.106621
Li -0.0723024 -0.928576 0.709098
Li -0.765432 -3.5943 0.0917469
4
 Atoms. Timestep: 2400
Li -1.61126 -2.49235 2.53986
Li -2.74375 -1.55408 0.116244
Li -0.0808686 -0.939785 0.619593
Li -0.705517 -3.58089 0.148103
4
 Atoms. Timestep: 2420
Li -1.54069 -2.37033 2.50417
Li -2.72934 -1.66541 0.092975
Li -0.0724489 -0.922275 0.768026
Li -0.798916 -3.60908 0.058633
4
 Atoms. Timestep: 2440
Li -1.60796 -2.48103 2.54028
Li -2.74047 -1.56964 0.114223
Li -0.0742556 -0.937264 0.634372
Li -0.71872 -3.57916 0.134925
4
 Atoms. Timestep: 2460
Li -1.57806 -2.43593 2.51616
Li -2.73604 -1.60158 0.109322
Li -0.0819789 -0.932425 0.687079
Li -0.745322 -3.59717 0.111242
4
 Atoms. Timestep: 2480
Li -1.55622 -2.39408 2.5201
Li -2.733 -1.64956 0.0935591
Li -0.0666388 -0.923309 0.740336
Li -0.785541 -3.60015 0.0698004
4
 Atoms. Timestep: 2500
Li -1.61813 -2.50172 2.53855
Li -2.74201 -1.54577 0.121347
Li -0.0823285 -0.943037 0.608466
Li -0.698932 -3.57657 0.155434
4
 Atoms. Timestep: 2520
Li -1.54715 -2.38082 2.50219
Li -2.72973 -1.6535 0.098368
Li -0.0759467 -0.922721 0.753866
Li -0.788574 -3.61005 0.0693803
4
 Atoms. Timestep: 2540
Li -1.59148 -2.45581 2.54456
Li -2.74186 -1.59577 0.101128
Li -0.0674134 -0.933064 0.666702
Li -0.740637 -3.58246 0.111406
4
 Atoms. Timestep: 2560
Li -1.59619 -2.46315 2.51198
Li -2.73362 -1.57453 0.12332
Li -0.0885994 -0.938335 0.652971
Li -0.722994 -3.59108 0.135529
4
 Atoms. Timestep: 2580
Li -1.54538 -2.37816 2.52177
Li -2.7355 -1.66384 0.0857826
Li -0.0635061 -0.918332 0.759593
Li -0.797005 -3.60677 0.0566544
4
 Atoms. Timestep: 2600
Li -1.61546 -2.49773 2.53974
Li -2.74026 -1.55199 0.118747
Li -0.0811315 -0.945556 0.614411
Li -0.704546 -3.57182 0.150903
4
 Atoms. Timestep: 2620
Li -1.56186 -2.40241 2.49898
Li -2.73047 -1.62976 0.109819
Li -0.0805275 -0.923676 0.726237
Li -0.76855 -3.61125 0.0887649
4
 Atoms. Timestep: 2640
Li -1.57215 -2.42721 2.54798
Li -2.74269 -1.62512 0.0867532
Li -0.0616296 -0.9288 0.702339
Li -0.764929 -3.58597 0.0867282
4
 Atoms. Timestep: 2660
Li -1.60998 -2.48404 2.51027
Li -2.73167 -1.55473 0.132953
Li -0.0927516 -0.944017 0.627737
Li -0.707003 -3.58431 0.152836
4
 Atoms. Timestep: 2680
Li -1.54367 -2.37488 2.52038
Li -2.73784 -1.66408 0.0857681
Li -0.0631963 -0.914061 0.762615
Li -0.796691 -3.61408 0.0550326
4
 Atoms. Timestep: 2700
Li -1.60358 -2.48114 2.54307
Li -2.73857 -1.57176 0.108958
Li -0.0780453 -0.947081 0.635732
Li -0.721202 -3.56712 0.136045
4
 Atoms. Timestep: 2720
Li -1.58127 -2.43024 2.4959
Li -2.7315 -1.59977 0.124145
Li -0.084927 -0.925201 0.691762
Li -0.7437 -3.61189 0.111989
4
 Atoms. Timestep: 2740
Li -1.55486 -2.40179 2.54864
Li -2.74275 -1.65027 0.0753991
Li -0.0582695 -0.924889 0.733038
Li -0.78552 -3.59015 0.0667245
4
 Atoms. Timestep: 2760
Li -1.61576 -2.4938 2.51246
Li -2.73058 -1.54743 0.135071
Li -0.0937141 -0.948869 0.616878
Li -0.701346 -3.577 0.159394
4
 Atoms. Timestep: 2780
Li -1.55197 -2.38517 2.51593
Li -2.73976 -1.64962 0.094017
Li -0.0652625 -0.9108 0.748987
Li -0.784409 -3.62151 0.0648698
4
 Atoms. Timestep: 2800
Li -1.58513 -2.45573 2.54725
Li -2.7369 -1.60059 0.0945095
Li -0.0743163 -0.947602 0.667203
Li -0.745048 -3.56318 0.114835
4
 Atoms. Timestep: 2820
Li -1.60046 -2.4578 2.49466
Li -2.73287 -1.57088 0.137122
Li -0.0880275 -0.927267 0.658593
Li -0.720041 -3.61115 0.133427
4
 Atoms. Timestep: 2840
Li -1.54435 -2.38564 2.54527
Li -2.74202 -1.66459 0.0708589
Li -0.0578577 -0.921507 0.751702
Li -0.797169 -3.59537 0.0559691
4
 Atoms. Timestep: 2860
Li -1.61168 -2.49016 2.51892
Li -2.73065 -1.55481 0.128353
Li -0.0916039 -0.952501 0.622466
Li -0.707464 -3.56963 0.154063
4
 Atoms. Timestep: 2880
Li -1.56842 -2.40647 2.5092
Li -2.74091 -1.62376 0.108757
Li -0.0689489 -0.908849 0.722414
Li -0.76312 -3.62802 0.0834245
4
 Atoms. Timestep: 2900
Li -1.5647 -2.42762 2.55058
Li -2.73524 -1.63146 0.0793996
Li -0.0710803 -0.947144 0.701206
Li -0.770382 -3.56087 0.0926112
4
 Atoms. Timestep: 2920
Li -1.61437 -2.47851 2.49683
Li -2.73477 -1.5503 0.144583
Li -0.0890931 -0.929802 0.634399
Li -0.703164 -3.60849 0.147985
4
 Atoms. Timestep: 2940
Li -1.54372 -2.38256 2.53745
Li -2.7404 -1.66422 0.0753052
Li -0.060241 -0.91868 0.754303
Li -0.797041 -3.60164 0.0567394
4
 Atoms. Timestep: 2960
Li -1.59853 -2.47425 2.52893
Li -2.73194 -1.57522 0.113792
Li -0.0871039 -0.954696 0.642581
Li -0.723833 -3.56294 0.138493
4
 Atoms. Timestep: 2980
Li -1.58876 -2.43328 2.50172
Li -2.74114 -1.59295 0.126308
Li -0.0734438 -0.908521 0.689765
Li -0.738055 -3.63235 0.106008
4
 Atoms. Timestep: 3000
Li -1.54762 -2.40374 2.55139
Li -2.73351 -1.65665 0.0680234
Li -0.0690844 -0.945651 0.729655
Li -0.791186 -3.56106 0.074729
4
 Atoms. Timestep: 3020
Li -1.61929 -2.48752 2.50346
Li -2.73756 -1.54306 0.143621
Li -0.0877848 -0.932674 0.624417
Li -0.696772 -3.60385 0.152304
4
 Atoms. Timestep: 3040
Li -1.55326 -2.39289 2.52564
Li -2.73772 -1.64938 0.0885921
Li -0.0649383 -0.916501 0.740984
Li -0.785484 -3.60834 0.0685822
4
 Atoms. Timestep: 3060
Li -1.57954 -2.45039 2.54081
Li -2.73416 -1.60357 0.094492
Li -0.0811943 -0.955345 0.671879
Li -0.746502 -3.5578 0.116615
4
 Atoms. Timestep: 3080
Li -1.60763 -2.45863 2.49545
Li -2.7408 -1.56488 0.14209
Li -0.0778669 -0.909997 0.659108
Li -0.715098 -3.63359 0.127148
4
 Atoms. Timestep: 3100
Li -1.53841 -2.38995 2.54846
Li -2.73153 -1.6699 0.0639351
Li -0.0687171 -0.943063 0.746084
Li -0.802738 -3.56418 0.0653179
4
 Atoms. Timestep: 3120
Li -1.6139 -2.48305 2.51459
Li -2.74134 -1.55075 0.13343
Li -0.084167 -0.935669 0.630296
Li -0.701992 -3.59763 0.145488
4
 Atoms. Timestep: 3140
Li -1.57043 -2.41332 2.51119
Li -2.7341 -1.62408 0.10828
Li -0.0712691 -0.915184 0.715783
Li -0.765592 -3.61452 0.0885467
4
 Atoms. Timestep: 3160
Li -1.55952 -2.42499 2.55226
Li -2.73664 -1.63277 0.0748268
Li -0.0749976 -0.954433 0.703085
Li -0.770245 -3.55491 0.0936291
4
 Atoms. Timestep: 3180
Li -1.62019 -2.47608 2.49243
Li -2.74063 -1.54641 0.151883
Li -0.0812789 -0.913199 0.637613
Li -0.699306 -3.63141 0.141877
4
 Atoms. Timestep: 3200
Li -1.53951 -2.38937 2.54135
Li -2.7292 -1.66812 0.0689162
Li -0.0700873 -0.939437 0.747106
Li -0.802603 -3.57017 0.0664288
4
 Atoms. Timestep: 3220
Li -1.59948 -2.46684 2.52905
Li -2.74565 -1.57125 0.115504
Li -0.0787887 -0.938562 0.65002
Li -0.717477 -3.59045 0.129227
4
 Atoms. Timestep: 3240
Li -1.59081 -2.43798 2.49628
Li -2.73024 -1.59486 0.130295
Li -0.0782717 -0.914922 0.685285
Li -0.742075 -3.61934 0.111936
4
 Atoms. Timestep: 3260
Li -1.54354 -2.40478 2.56095
Li -2.73854 -1.65557 0.0593287
Li -0.0696087 -0.952033 0.728706
Li -0.789711 -3.55472 0.0748159
4
 Atoms. Timestep: 3280
Li -1.62322 -2.48137 2.49399
Li -2.7412 -1.54189 0.152891
Li -0.082925 -0.917821 0.630074
Li -0.694055 -3.62603 0.146841
4
 Atoms. Timestep: 3300
Li -1.55073 -2.40162 2.53057
Li -2.72675 -1.65198 0.0825857
Li -0.0730104 -0.935008 0.732959
Li -0.790913 -3.5785 0.0776827
4
 Atoms. Timestep: 3320
Li -1.57947 -2.44362 2.54462
Li -2.74941 -1.59941 0.0932527
Li -0.0726601 -0.941184 0.678546
Li -0.739851 -3.58288 0.107378
4
 Atoms. Timestep: 3340
Li -1.60928 -2.46006 2.48352
Li -2.72719 -1.569 0.149922
Li -0.084738 -0.915749 0.657014
Li -0.720196 -3.62229 0.133343
4
 Atoms. Timestep: 3360
Li -1.53575 -2.3951 2.56517
Li -2.73944 -1.66626 0.0516512
Li -0.0658739 -0.948273 0.742552
Li -0.800338 -3.55747 0.064427
4
 Atoms. Timestep: 3380
Li -1.6158 -2.47345 2.5003
Li -2.74242 -1.55229 0.144375
Li -0.0825495 -0.923477 0.638102
Li -0.700636 -3.61789 0.141022
4
 Atoms. Timestep: 3400
Li -1.56943 -2.42295 2.51758
Li -2.72476 -1.62566 0.102505
Li -0.0769736 -0.930125 0.70733
Li -0.770242 -3.58836 0.0963843
4
 Atoms. Timestep: 3420
Li -1.55873 -2.41995 2.55867
Li -2.75152 -1.62819 0.0712352
Li -0.066988 -0.943398 0.708787
Li -0.764159 -3.57556 0.0851109
4
 Atoms. Timestep: 3440
Li -1.62121 -2.47359 2.47522
Li -2.72578 -1.55282 0.162858
Li -0.0894811 -0.917568 0.637935
Li -0.704932 -3.62312 0.147791
4
 Atoms. Timestep: 3460
Li -1.5384 -2.3985 2.56418
Li -2.73944 -1.66211 0.0537674
Li -0.0642679 -0.943332 0.741038
Li -0.799287 -3.56317 0.0648132
4
 Atoms. Timestep: 3480
Li -1.59947 -2.45477 2.51025
Li -2.74355 -1.57497 0.12782
Li -0.0804746 -0.929792 0.659771
Li -0.717907 -3.60756 0.125956
4
 Atoms. Timestep: 3500
Li -1.59109 -2.44726 2.50443
Li -2.7239 -1.59584 0.124681
Li -0.0811805 -0.925185 0.676647
Li -0.745231 -3.59882 0.118043
4
 Atoms. Timestep: 3520
Li -1.54247 -2.4025 2.56889
Li -2.75147 -1.65033 0.0541412
Li -0.0628446 -0.945001 0.732966
Li -0.784618 -3.56928 0.0678076
4
 Atoms. Timestep: 3540
Li -1.62353 -2.47494 2.47278
Li -2.7262 -1.55023 0.166193
Li -0.0916366 -0.920246 0.633012
Li -0.700032 -3.62169 0.151817
4
 Atoms. Timestep: 3560
Li -1.55111 -2.41389 2.55821
Li -2.73897 -1.64421 0.0654761
Li -0.0649202 -0.937512 0.724238
Li -0.786398 -3.57149 0.0758729
4
 Atoms. Timestep: 3580
Li -1.57803 -2.43066 2.52198
Li -2.7438 -1.60424 0.106621
Li -0.0774188 -0.936357 0.68977
Li -0.742152 -3.59585 0.105431
4
 Atoms. Timestep: 3600
Li -1.61044 -2.46772 2.49331
Li -2.72456 -1.56996 0.14445
Li -0.0846436 -0.920602 0.648771
Li -0.721754 -3.60882 0.13727
4
 Atoms. Timestep: 3620
Li -1.53486 -2.39618 2.57379
Li -2.74952 -1.66024 0.0456743
Li -0.0610244 -0.945734 0.744473
Li -0.795992 -3.56495 0.0598634
4
 Atoms. Timestep: 3640
Li -1.61555 -2.46386 2.47645
Li -2.72808 -1.56161 0.15914
Li -0.0908275 -0.923632 0.643881
Li -0.706939 -3.618 0.144325
4
 Atoms. Timestep: 3660
Li -1.57082 -2.43685 2.54828
Li -2.73834 -1.61737 0.084373
Li -0.0676095 -0.931292 0.696216
Li -0.764633 -3.58159 0.0949281
4
 Atoms. Timestep: 3680
Li -1.55664 -2.40785 2.5334
Li -2.74282 -1.63272 0.085292
Li -0.0742986 -0.942643 0.720411
Li -0.767647 -3.58388 0.0846922
4
 Atoms. Timestep: 3700
Li -1.62287 -2.47872 2.4861
Li -2.72677 -1.55428 0.15761
Li -0.0863025 -0.916774 0.631099
Li -0.705465 -3.61733 0.148988
4
 Atoms. Timestep: 3720
Li -1.53776 -2.40268 2.57278
Li -2.74628 -1.65575 0.0476027
Li -0.0620464 -0.945437 0.739829
Li -0.795305 -3.56323 0.0635837
4
 Atoms. Timestep: 3740
Li -1.59922 -2.44352 2.4854
Li -2.73081 -1.58372 0.14325
Li -0.0872615 -0.927507 0.668165
Li -0.724104 -3.61236 0.126986
4
 Atoms. Timestep: 3760
Li -1.59271 -2.46095 2.53605
Li -2.73766 -1.58863 0.106425
Li -0.0716117 -0.925267 0.664145
Li -0.739412 -3.59225 0.117178
4
 Atoms. Timestep: 3780
Li -1.54039 -2.39262 2.54271
Li -2.74076 -1.65343 0.0683116
Li -0.0721274 -0.948029 0.743541
Li -0.788129 -3.57302 0.0692378
4
 Atoms. Timestep: 3800
Li -1.62566 -2.47744 2.48402
Li -2.73026 -1.55208 0.161474
Li -0.0852684 -0.914032 0.628572
Li -0.700208 -3.62354 0.149735
4
 Atoms. Timestep: 3820
Li -1.55018 -2.42005 2.56615
Li -2.74228 -1.63872 0.0593436
Li -0.0660151 -0.944192 0.719837
Li -0.782923 -3.56414 0.0784664
4
 Atoms. Timestep: 3840
Li -1.5785 -2.41946 2.4979
Li -2.7338 -1.6107 0.121981
Li -0.0818216 -0.931521 0.699922
Li -0.747282 -3.60542 0.103998
4
 Atoms. Timestep: 3860
Li -1.61169 -2.47968 2.52362
Li -2.73707 -1.56516 0.127007
Li -0.0756321 -0.920025 0.636391
Li -0.71701 -3.60223 0.136777
4
 Atoms. Timestep: 3880
Li -1.53288 -2.38896 2.54857
Li -2.73806 -1.66172 0.059033
Li -0.0718556 -0.951945 0.752763
Li -0.798607 -3.56448 0.0634384
4
 Atoms. Timestep: 3900
Li -1.61853 -2.46436 2.48727
Li -2.7346 -1.56313 0.155458
Li -0.081259 -0.912591 0.642363
Li -0.70701 -3.62702 0.138704
4
 Atoms. Timestep: 3920
Li -1.56887 -2.44351 2.55507
Li -2.73789 -1.61413 0.0782181
Li -0.0722989 -0.9423 0.689362
Li -0.762336 -3.56715 0.101146
4
 Atoms. Timestep: 3940
Li -1.55816 -2.39795 2.51174
Li -2.73655 -1.63585 0.0998018
Li -0.0759797 -0.935205 0.731125
Li -0.770704 -3.5981 0.0811363
4
 Atoms. Timestep: 3960
Li -1.62366 -2.48828 2.51312
Li -2.73675 -1.55229 0.142006
Li -0.0781479 -0.916049 0.620345
Li -0.702834 -3.61048 0.148332
4
 Atoms. Timestep: 3980
Li -1.53549 -2.39772 2.55034
Li -2.73521 -1.65627 0.0589941
Li -0.0740168 -0.954065 0.745134
Li -0.796687 -3.55904 0.0693334
4
 Atoms. Timestep: 4000
Li -1.60331 -2.44281 2.49494
Li -2.73911 -1.58412 0.141122
Li -0.0749819 -0.912497 0.66959
Li -0.723993 -3.62768 0.118146
4
 Atoms. Timestep: 4020
Li -1.58943 -2.46707 2.54156
Li -2.7336 -1.58839 0.100166
Li -0.0794017 -0.940149 0.65597
Li -0.738967 -3.57149 0.126099
4
 Atoms. Timestep: 4040
Li -1.54274 -2.38438 2.52471
Li -2.73877 -1.65329 0.0811522
Li -0.0713659 -0.938041 0.753608
Li -0.788517 -3.59139 0.0643287
4
 Atoms. Timestep: 4060
Li -1.62623 -2.4846 2.50606
Li -2.73681 -1.55253 0.148687
Li -0.0781142 -0.913664 0.620643
Li -0.700242 -3.6163 0.148414
