3
 Atoms. Timestep: 50
Li -0.569744 -0.454926 -1.1645e-17
Li 2.10118 -0.506955 -1.1531e-17
Li 0.720589 1.86259 1.30286e-19
3
 Atoms. Timestep: 100
Li 0.800061 0.710365 -8.73689e-18
Li 3.61409 0.77491 -8.16127e-18
Li 2.26267 3.14996 1.41385e-18
3
 Atoms. Timestep: 150
Li 0.884318 0.772623 6.93337e-18
Li 3.57436 0.75332 6.80461e-18
Li 2.21285 3.10483 1.15785e-18
3
 Atoms. Timestep: 200
Li -0.605089 -0.472758 1.25945e-17
Li 2.1792 -0.493375 1.14648e-17
Li 0.769552 1.94418 -1.58648e-18
3
 Atoms. Timestep: 250
Li -1.29135 -1.06633 1.49497e-20
Li 1.4239 -1.01532 -7.68698e-19
Li 0.110336 1.28666 -2.49963e-18
3
 Atoms. Timestep: 300
Li -0.238881 -0.161748 -1.21199e-17
Li 2.52561 -0.221345 -1.12792e-17
Li 1.09157 2.23438 3.00838e-19
3
 Atoms. Timestep: 350
Li 0.941622 0.820188 -6.43859e-18
Li 3.65348 0.828483 -4.7699e-18
Li 2.30449 3.17458 2.97776e-18
3
 Atoms. Timestep: 400
Li 0.48121 0.441913 7.8468e-18
Li 3.2623 0.460577 8.18812e-18
Li 1.88799 2.8505 1.75055e-18
3
 Atoms. Timestep: 450
Li -0.770657 -0.619689 9.95761e-18
Li 1.93174 -0.67008 8.51863e-18
Li 0.537256 1.72317 -2.06628e-18
3
 Atoms. Timestep: 500
Li -1.0723 -0.873118 -1.70166e-18
Li 1.70542 -0.824767 -3.43889e-18
Li 0.358398 1.53472 -3.57743e-18
3
 Atoms. Timestep: 550
Li 0.0865086 0.103396 -9.92701e-18
Li 2.81263 0.0965753 -9.67222e-18
Li 1.44349 2.4652 -4.95481e-20
3
 Atoms. Timestep: 600
Li 0.841208 0.743675 -3.84045e-18
Li 3.59103 0.723112 -1.76449e-18
Li 2.19821 3.12931 4.26333e-18
3
 Atoms. Timestep: 650
Li 0.142855 0.149057 6.95212e-18
Li 2.88853 0.193864 8.20065e-18
Li 1.55453 2.52759 2.72595e-18
3
 Atoms. Timestep: 700
Li -0.879637 -0.707374 7.2311e-18
Li 1.85707 -0.749789 6.09996e-18
Li 0.452241 1.66381 -3.36169e-18
3
 Atoms. Timestep: 750
Li -0.760561 -0.61148 -2.53912e-18
Li 1.97925 -0.609352 -4.61538e-18
Li 0.611196 1.76526 -4.95571e-18
3
 Atoms. Timestep: 800
Li 0.295199 0.280601 -8.00416e-18
Li 3.04437 0.299427 -8.34899e-18
Li 1.68586 2.66143 9.46409e-19
3
 Atoms. Timestep: 850
Li 0.714205 0.636948 -1.69693e-18
Li 3.44614 0.594281 -9.53074e-20
Li 2.04313 3.0045 5.82037e-18
3
 Atoms. Timestep: 900
Li -0.14069 -0.0897055 6.44031e-18
Li 2.60527 -0.0546408 8.00229e-18
Li 1.26273 2.2902 2.26427e-18
3
 Atoms. Timestep: 950
Li -0.911609 -0.735647 4.70411e-18
Li 1.83949 -0.738263 4.36388e-18
Li 0.461883 1.64687 -4.74523e-18
3
 Atoms. Timestep: 1000
Li -0.483672 -0.377522 -3.51016e-18
Li 2.24085 -0.397592 -5.28146e-18
Li 0.861254 1.98507 -5.1e-18
3
 Atoms. Timestep: 1050
Li 0.425993 0.391179 -5.93258e-18
Li 3.19149 0.430405 -6.84345e-18
Li 1.8425 2.78665 1.8223e-18
3
 Atoms. Timestep: 1100
Li 0.540746 0.487891 2.69653e-19
Li 3.25803 0.456271 1.23558e-18
Li 1.87192 2.8419 6.44324e-18
3
 Atoms. Timestep: 1150
Li -0.362352 -0.272464 5.43677e-18
Li 2.39545 -0.272451 6.95349e-18
Li 1.01664 2.1189 2.0093e-18
3
 Atoms. Timestep: 1200
Li -0.847351 -0.686259 2.47095e-18
Li 1.88132 -0.667655 2.56019e-18
Li 0.533238 1.67664 -5.59191e-18
3
 Atoms. Timestep: 1250
Li -0.246327 -0.171661 -3.72251e-18
Li 2.50339 -0.208752 -4.90806e-18
Li 1.09646 2.21078 -5.43887e-18
3
 Atoms. Timestep: 1300
Li 0.511352 0.458757 -4.1257e-18
Li 3.23767 0.485227 -4.95469e-18
Li 1.89726 2.82147 2.72578e-18
3
 Atoms. Timestep: 1350
Li 0.303422 0.291445 1.38327e-18
Li 3.06783 0.290721 1.79181e-18
Li 1.68489 2.68522 7.17625e-18
3
 Atoms. Timestep: 1400
Li -0.491554 -0.385835 4.49541e-18
Li 2.21882 -0.405352 5.46909e-18
Li 0.846834 1.96372 1.18335e-18
3
 Atoms. Timestep: 1450
Li -0.754564 -0.603328 9.28067e-19
Li 2.01974 -0.569877 1.16339e-18
Li 0.661695 1.79949 -6.53211e-18
3
 Atoms. Timestep: 1500
Li -0.0195184 0.0132997 -3.71135e-18
Li 2.68883 -0.0104461 -4.33209e-18
Li 1.31412 2.35916 -4.78656e-18
3
 Atoms. Timestep: 1550
Li 0.48627 0.444938 -2.6121e-18
Li 3.25145 0.444491 -3.16796e-18
Li 1.86833 2.84208 3.74708e-18
3
 Atoms. Timestep: 1600
Li 0.112735 0.122841 2.11441e-18
Li 2.8325 0.141002 2.34347e-18
Li 1.48824 2.478 6.80512e-18
3
 Atoms. Timestep: 1650
Li -0.599132 -0.468916 3.34377e-18
Li 2.15747 -0.500136 3.87489e-18
Li 0.752227 1.91917 2.32231e-19
3
 Atoms. Timestep: 1700
Li -0.567039 -0.451597 -2.69214e-19
Li 2.15178 -0.431881 -2.54592e-19
Li 0.809566 1.90427 -6.59053e-18
3
 Atoms. Timestep: 1750
Li 0.104279 0.123752 -3.07844e-18
Li 2.87124 0.123582 -3.47417e-18
Li 1.48762 2.51956 -4.04549e-18
3
 Atoms. Timestep: 1800
Li 0.4492 0.407808 -1.25376e-18
Li 3.15693 0.389664 -1.41428e-18
Li 1.78724 2.75453 4.28242e-18
3
 Atoms. Timestep: 1850
Li -0.104331 -0.0542254 2.06235e-18
Li 2.669 -0.0261664 2.4047e-18
Li 1.30654 2.34769 6.45031e-18
3
 Atoms. Timestep: 1900
Li -0.603357 -0.479732 2.11454e-18
Li 2.10599 -0.497682 2.37641e-18
Li 0.735849 1.86669 -6.95034e-19
3
 Atoms. Timestep: 1950
Li -0.416487 -0.316875 -7.86005e-19
Li 2.3473 -0.317598 -1.04008e-18
Li 0.964902 2.07845 -6.75433e-18
3
 Atoms. Timestep: 2000
Li 0.227576 0.220043 -2.22461e-18
Li 2.94813 0.236961 -2.63646e-18
Li 1.6025 2.57581 -2.96661e-18
3
 Atoms. Timestep: 2050
Li 0.319727 0.305928 -3.11682e-19
Li 3.07497 0.280148 -2.67042e-19
Li 1.67492 2.69268 4.95743e-18
3
 Atoms. Timestep: 2100
Li -0.227697 -0.164544 1.78266e-18
Li 2.49293 -0.149296 2.29956e-18
Li 1.14574 2.19271 5.55188e-18
3
 Atoms. Timestep: 2150
Li -0.607574 -0.477657 9.92968e-19
Li 2.15481 -0.477552 1.25726e-18
Li 0.773775 1.91414 -1.72797e-18
3
 Atoms. Timestep: 2200
Li -0.226323 -0.161549 -1.13513e-18
Li 2.48653 -0.178274 -1.52293e-18
Li 1.11573 2.18912 -6.31305e-18
3
 Atoms. Timestep: 2250
Li 0.255493 0.249027 -1.22805e-18
Li 3.02187 0.272292 -1.80534e-18
Li 1.65883 2.64483 -1.85821e-18
3
 Atoms. Timestep: 2300
Li 0.208789 0.206284 5.28674e-19
Li 2.92512 0.192362 5.7098e-19
Li 1.5548 2.55863 5.10357e-18
3
 Atoms. Timestep: 2350
Li -0.354409 -0.265307 1.19629e-18
Li 2.40276 -0.266029 1.85327e-18
Li 1.02349 2.12397 4.67859e-18
3
 Atoms. Timestep: 2400
Li -0.528656 -0.41721 -7.4175e-20
Li 2.19823 -0.401761 3.06557e-19
Li 0.848216 1.94398 -2.39775e-18
3
 Atoms. Timestep: 2450
Li -0.102536 -0.051515 -1.08604e-18
Li 2.64667 -0.073066 -1.48186e-18
Li 1.25351 2.32979 -5.90902e-18
3
 Atoms. Timestep: 2500
Li 0.284868 0.269333 -2.6134e-19
Li 3.01226 0.281477 -9.28258e-19
Li 1.65908 2.63223 -8.84428e-19
3
 Atoms. Timestep: 2550
Li 0.0543547 0.0798375 9.62808e-19
Li 2.80867 0.0803248 9.03962e-19
Li 1.43184 2.4647 5.25763e-18
3
 Atoms. Timestep: 2600
Li -0.403774 -0.310275 5.88903e-19
Li 2.3178 -0.325291 1.1987e-18
Li 0.943955 2.0477 3.69653e-18
3
 Atoms. Timestep: 2650
Li -0.454251 -0.350888 -8.04534e-19
Li 2.30263 -0.331467 -3.14142e-19
Li 0.941058 2.03664 -3.04016e-18
3
 Atoms. Timestep: 2700
Li 0.0194587 0.0476031 -9.32291e-19
Li 2.74508 0.036215 -1.18694e-18
Li 1.3725 2.40784 -5.19262e-18
3
 Atoms. Timestep: 2750
Li 0.247219 0.24144 5.15835e-19
Li 2.99565 0.240489 -1.5388e-19
Li 1.62061 2.62286 5.2932e-20
3
 Atoms. Timestep: 2800
Li -0.063806 -0.0236983 1.22058e-18
Li 2.67133 -0.00965376 1.03253e-18
Li 1.31584 2.34467 4.98558e-18
3
 Atoms. Timestep: 2850
Li -0.444424 -0.341442 -3.73096e-20
Li 2.29701 -0.359439 4.64836e-19
Li 0.910658 2.03306 2.72348e-18
3
 Atoms. Timestep: 2900
Li -0.337618 -0.254694 -1.33372e-18
Li 2.39798 -0.244651 -8.23859e-19
Li 1.03893 2.11514 -3.26619e-18
3
 Atoms. Timestep: 2950
Li 0.0874989 0.106664 -5.62862e-19
Li 2.83294 0.107381 -6.99723e-19
Li 1.46092 2.48382 -4.43363e-18
3
 Atoms. Timestep: 3000
Li 0.200699 0.201077 1.14667e-18
Li 2.93147 0.187598 5.94576e-19
Li 1.55442 2.5668 6.89318e-19
3
 Atoms. Timestep: 3050
Li -0.178066 -0.118847 1.13919e-18
Li 2.56922 -0.102379 9.14e-19
Li 1.20976 2.2604 4.63009e-18
3
 Atoms. Timestep: 3100
Li -0.439923 -0.339125 -6.36683e-19
Li 2.29467 -0.34861 -2.92949e-19
Li 0.919115 2.02887 1.86666e-18
3
 Atoms. Timestep: 3150
Li -0.231353 -0.1635 -1.51107e-18
Li 2.50855 -0.164734 -1.07937e-18
Li 1.13758 2.2103 -3.39533e-18
3
 Atoms. Timestep: 3200
Li 0.13404 0.144505 -9.71243e-20
Li 2.87686 0.157009 -1.47173e-19
Li 1.51635 2.51948 -3.59877e-18
3
 Atoms. Timestep: 3250
Li 0.122368 0.13576 1.52545e-18
Li 2.85648 0.120473 1.11221e-18
Li 1.47619 2.50382 1.25175e-18
3
 Atoms. Timestep: 3300
Li -0.258671 -0.186966 8.83362e-19
Li 2.48425 -0.178332 6.83752e-19
Li 1.1202 2.18913 4.05336e-18
3
 Atoms. Timestep: 3350
Li -0.412267 -0.316259 -1.14077e-18
Li 2.32544 -0.315133 -8.8893e-19
Li 0.957523 2.05426 1.03462e-18
3
 Atoms. Timestep: 3400
Li -0.129568 -0.0767066 -1.50556e-18
Li 2.60891 -0.0887442 -1.18556e-18
Li 1.22929 2.29554 -3.22709e-18
3
 Atoms. Timestep: 3450
Li 0.152703 0.159541 4.2478e-19
Li 2.89206 0.173527 3.66095e-19
Li 1.53456 2.53188 -2.73723e-18
3
 Atoms. Timestep: 3500
Li 0.0306745 0.0589015 1.77398e-18
Li 2.7723 0.050723 1.46851e-18
Li 1.3944 2.43296 1.52122e-18
3
 Atoms. Timestep: 3550
Li -0.310157 -0.230878 4.64113e-19
Li 2.42302 -0.23232 3.53711e-19
Li 1.05512 2.13697 3.4053e-18
3
 Atoms. Timestep: 3600
Li -0.367007 -0.277555 -1.59086e-18
Li 2.38146 -0.266343 -1.36747e-18
Li 1.0169 2.10236 4.27277e-19
3
 Atoms. Timestep: 3650
Li -0.0406266 -0.00267841 -1.29143e-18
Li 2.68809 -0.0158273 -1.0761e-18
Li 1.31239 2.36063 -2.96225e-18
3
 Atoms. Timestep: 3700
Li 0.139984 0.15037 9.61336e-19
Li 2.88803 0.157812 8.57314e-19
Li 1.52051 2.53078 -1.98997e-18
3
 Atoms. Timestep: 3750
Li -0.0534296 -0.014138 1.8204e-18
Li 2.6789 -0.0127173 1.56208e-18
Li 1.31396 2.35174 1.69202e-18
3
 Atoms. Timestep: 3800
Li -0.345401 -0.258308 -1.98486e-20
Li 2.39826 -0.26895 -5.88988e-20
Li 1.01716 2.11835 2.74023e-18
3
 Atoms. Timestep: 3850
Li -0.293149 -0.217333 -1.87677e-18
Li 2.44095 -0.205187 -1.62863e-18
Li 1.08439 2.15049 -9.97117e-20
3
 Atoms. Timestep: 3900
Li 0.0137526 0.0451217 -9.82654e-19
Li 2.75972 0.0379558 -8.09395e-19
Li 1.38057 2.42293 -2.55957e-18
3
 Atoms. Timestep: 3950
Li 0.119401 0.131244 1.39677e-18
Li 2.84853 0.129491 1.23783e-18
Li 1.4825 2.49543 -1.28244e-18
3
 Atoms. Timestep: 4000
Li -0.144283 -0.0890571 1.75807e-18
Li 2.60718 -0.0790915 1.48497e-18
Li 1.24007 2.29346 1.63979e-18
3
 Atoms. Timestep: 4050
Li -0.343727 -0.259039 -4.85181e-19
Li 2.38224 -0.270418 -4.83584e-19
Li 1.00935 2.10185 2.06075e-18
3
 Atoms. Timestep: 4100
Li -0.227096 -0.159054 -2.05493e-18
Li 2.52339 -0.152459 -1.76548e-18
Li 1.15383 2.22342 -3.76766e-19
3
 Atoms. Timestep: 4150
Li 0.0624271 0.0832933 -6.04076e-19
Li 2.79222 0.0849458 -4.32467e-19
Li 1.42879 2.44698 -2.08844e-18
3
 Atoms. Timestep: 4200
Li 0.0641919 0.0876734 1.75039e-18
Li 2.81023 0.0781537 1.56697e-18
Li 1.42902 2.46627 -7.83974e-19
3
 Atoms. Timestep: 4250
Li -0.200704 -0.13947 1.54761e-18
Li 2.5311 -0.128848 1.25092e-18
Li 1.17439 2.22636 1.48106e-18
3
 Atoms. Timestep: 4300
Li -0.341213 -0.254382 -9.19502e-19
Li 2.4063 -0.26064 -9.26355e-19
Li 1.02707 2.1248 1.49418e-18
3
 Atoms. Timestep: 4350
Li -0.142021 -0.0895421 -2.04371e-18
Li 2.58591 -0.0914281 -1.74404e-18
Li 1.22028 2.27353 -5.40014e-19
3
 Atoms. Timestep: 4400
Li 0.0703641 0.0922582 -1.9304e-19
Li 2.82217 0.101115 1.00873e-20
Li 1.45397 2.47508 -1.60686e-18
3
 Atoms. Timestep: 4450
Li 0.0156529 0.0442008 1.93007e-18
Li 2.74153 0.0341271 1.76409e-18
Li 1.36991 2.40494 -3.72519e-19
3
 Atoms. Timestep: 4500
Li -0.258106 -0.185144 1.24672e-18
Li 2.49225 -0.179332 9.29113e-19
Li 1.1221 2.19714 1.19904e-18
3
 Atoms. Timestep: 4550
Li -0.302264 -0.224546 -1.24535e-18
Li 2.42765 -0.222671 -1.28228e-18
Li 1.06427 2.13929 9.62778e-19
3
 Atoms. Timestep: 4600
Li -0.084931 -0.0383133 -1.91357e-18
Li 2.66093 -0.0467558 -1.62787e-18
Li 1.28066 2.34009 -5.09437e-19
3
 Atoms. Timestep: 4650
Li 0.0802696 0.097842 2.03784e-19
Li 2.81243 0.107234 4.23114e-19
Li 1.45452 2.46397 -1.10173e-18
3
 Atoms. Timestep: 4700
Li -0.0582203 -0.0156783 2.00084e-18
Li 2.68844 -0.0212527 1.87007e-18
Li 1.31033 2.36275 -1.66426e-19
3
 Atoms. Timestep: 4750
Li -0.276293 -0.202658 8.69441e-19
Li 2.45287 -0.204663 5.72543e-19
Li 1.08655 2.1614 8.45412e-19
3
 Atoms. Timestep: 4800
Li -0.269028 -0.194389 -1.5019e-18
Li 2.48096 -0.186428 -1.5666e-18
Li 1.11281 2.1869 5.92777e-19
3
 Atoms. Timestep: 4850
Li -0.0233655 0.0114275 -1.6503e-18
Li 2.70458 0.00249416 -1.41261e-18
Li 1.33285 2.37395 -3.82715e-19
3
 Atoms. Timestep: 4900
Li 0.0557285 0.0795376 5.85441e-19
Li 2.80392 0.0846503 8.01966e-19
Li 1.43428 2.4599 -6.7702e-19
3
 Atoms. Timestep: 4950
Li -0.112898 -0.064409 1.92416e-18
Li 2.61919 -0.0624914 1.83377e-18
Li 1.25484 2.3013 -5.43621e-20
3
 Atoms. Timestep: 5000
Li -0.294357 -0.2154 4.584e-19
Li 2.44941 -0.222969 1.97587e-19
Li 1.07097 2.16113 4.78556e-19
3
 Atoms. Timestep: 5050
Li -0.209364 -0.146251 -1.63403e-18
Li 2.52506 -0.1378 -1.70603e-18
Li 1.16513 2.22187 2.93788e-19
3
 Atoms. Timestep: 5100
Li 0.00519206 0.0374123 -1.32079e-18
Li 2.74931 0.0325341 -1.1243e-18
Li 1.37301 2.41367 -1.6193e-19
3
 Atoms. Timestep: 5150
Li 0.0340005 0.0596515 8.90762e-19
Li 2.76604 0.0575947 1.0762e-18
Li 1.39827 2.42613 -2.85829e-19
3
 Atoms. Timestep: 5200
Li -0.174317 -0.114786 1.76539e-18
Li 2.57242 -0.107674 1.69089e-18
Li 1.20525 2.26369 -8.75442e-20
3
 Atoms. Timestep: 5250
Li -0.28306 -0.207367 6.66249e-20
Li 2.4483 -0.215407 -1.45449e-19
Li 1.07565 2.15808 1.02592e-19
3
 Atoms. Timestep: 5300
Li -0.15977 -0.102758 -1.68439e-18
Li 2.58503 -0.0982151 -1.73877e-18
Li 1.21652 2.27464 1.5219e-19
3
 Atoms. Timestep: 5350
Li 0.0293403 0.0560502 -9.54514e-19
Li 2.76474 0.0580212 -7.89561e-19
Li 1.39873 2.42466 1.07191e-19
3
 Atoms. Timestep: 5400
Li -0.0103534 0.0238388 1.12923e-18
Li 2.73024 0.016999 1.27574e-18
Li 1.35405 2.39757 -2.40864e-20
3
 Atoms. Timestep: 5450
Li -0.211677 -0.147664 1.52225e-18
Li 2.526 -0.140073 1.44646e-18
Li 1.16377 2.22325 -1.98005e-19
3
 Atoms. Timestep: 5500
Li -0.269143 -0.194627 -2.86419e-19
Li 2.4716 -0.198921 -4.66094e-19
Li 1.09751 2.17872 -2.01876e-19
3
 Atoms. Timestep: 5550
Li -0.102864 -0.0553954 -1.62149e-18
Li 2.63278 -0.057387 -1.64982e-18
Li 1.2632 2.31417 9.80804e-20
3
 Atoms. Timestep: 5600
Li 0.0300972 0.0572612 -5.86587e-19
Li 2.77302 0.0637281 -4.26484e-19
Li 1.40714 2.43247 3.77899e-19
3
 Atoms. Timestep: 5650
Li -0.0538025 -0.0134105 1.25209e-18
Li 2.6814 -0.020712 1.36799e-18
Li 1.3075 2.35534 1.62192e-19
3
 Atoms. Timestep: 5700
Li -0.240914 -0.171654 1.23316e-18
Li 2.50012 -0.167705 1.1386e-18
Li 1.13305 2.20243 -3.78602e-19
3
 Atoms. Timestep: 5750
Li -0.239109 -0.170043 -5.50921e-19
Li 2.49986 -0.168116 -7.1736e-19
Li 1.13204 2.20167 -4.62993e-19
3
 Atoms. Timestep: 5800
Li -0.0591961 -0.0179062 -1.47848e-18
Li 2.67801 -0.0240836 -1.48118e-18
Li 1.30402 2.35286 1.59499e-19
3
 Atoms. Timestep: 5850
Li 0.0221788 0.0501952 -2.54805e-19
Li 2.76319 0.0571233 -8.72453e-20
Li 1.39867 2.42401 6.49601e-19
3
 Atoms. Timestep: 5900
Li -0.102423 -0.0544017 1.28228e-18
Li 2.63495 -0.0581812 1.38295e-18
Li 1.26302 2.31602 2.20571e-19
3
 Atoms. Timestep: 5950
Li -0.252776 -0.181424 9.18223e-19
Li 2.48632 -0.183384 8.09672e-19
Li 1.11511 2.19107 -6.03215e-19
3
 Atoms. Timestep: 6000
Li -0.202265 -0.139279 -7.38014e-19
Li 2.53709 -0.133384 -9.06937e-19
Li 1.17251 2.23285 -6.1801e-19
3
 Atoms. Timestep: 6050
Li -0.026679 0.00986342 -1.25767e-18
Li 2.71199 0.00324563 -1.25256e-18
Li 1.33689 2.38162 2.94051e-19
3
 Atoms. Timestep: 6100
Li 0.00399264 0.0346325 3.81644e-20
Li 2.74166 0.0381153 2.15874e-19
Li 1.37583 2.40579 8.62102e-19
3
 Atoms. Timestep: 6150
Li -0.149034 -0.0935991 1.20708e-18
Li 2.59298 -0.091764 1.31145e-18
Li 1.22358 2.28076 1.98125e-19
3
 Atoms. Timestep: 6200
Li -0.250123 -0.179438 5.95105e-19
Li 2.48422 -0.185129 4.81601e-19
Li 1.11215 2.1888 -8.25445e-19
3
 Atoms. Timestep: 6250
Li -0.163287 -0.10592 -8.23254e-19
Li 2.58042 -0.0995988 -1.00124e-18
Li 1.21403 2.27022 -7.06457e-19
3
 Atoms. Timestep: 6300
Li -0.00441258 0.0278935 -9.87968e-19
Li 2.73029 0.0246183 -9.86102e-19
Li 1.36007 2.39603 4.7809e-19
3
 Atoms. Timestep: 6350
Li -0.026294 0.0100659 2.59016e-19
Li 2.71546 0.00822693 4.37962e-19
Li 1.34298 2.38484 1.03814e-18
3
 Atoms. Timestep: 6400
Li -0.182923 -0.123265 1.05913e-18
Li 2.55374 -0.117859 1.17007e-18
Li 1.19011 2.24655 9.07997e-20
3
 Atoms. Timestep: 6450
Li -0.241945 -0.171509 3.0052e-19
Li 2.49923 -0.177592 1.96706e-19
Li 1.1234 2.2024 -1.04754e-18
3
 Atoms. Timestep: 6500
Li -0.117719 -0.0683593 -8.3312e-19
Li 2.61758 -0.065315 -1.01058e-18
Li 1.25256 2.30071 -6.97171e-19
3
 Atoms. Timestep: 6550
Li -0.00170343 0.0309956 -7.00773e-19
Li 2.74232 0.0327681 -7.11836e-19
Li 1.37181 2.40712 6.95191e-19
3
 Atoms. Timestep: 6600
Li -0.0558369 -0.0157495 4.19015e-19
Li 2.67669 -0.0209786 5.8533e-19
Li 1.30589 2.3509 1.12666e-18
3
 Atoms. Timestep: 6650
Li -0.213399 -0.147942 8.5552e-19
Li 2.5319 -0.14217 9.72407e-19
Li 1.16427 2.22957 -7.27675e-20
3
 Atoms. Timestep: 6700
Li -0.217429 -0.152112 4.07159e-20
Li 2.51574 -0.155009 -4.68215e-20
Li 1.14667 2.21468 -1.21149e-18
3
 Atoms. Timestep: 6750
Li -0.0841944 -0.0386014 -7.63823e-19
Li 2.65903 -0.0403397 -9.32743e-19
Li 1.28591 2.33741 -6.22926e-19
3
 Atoms. Timestep: 6800
Li -0.00129487 0.0298444 -4.15915e-19
Li 2.73392 0.0348803 -4.34993e-19
Li 1.37065 2.39844 8.9597e-19
3
 Atoms. Timestep: 6850
Li -0.0975335 -0.0495176 4.93951e-19
Li 2.6449 -0.0550713 6.42041e-19
Li 1.26886 2.32549 1.1567e-18
3
 Atoms. Timestep: 6900
Li -0.222238 -0.156668 6.22182e-19
Li 2.51196 -0.154014 7.31807e-19
Li 1.14718 2.21143 -2.64591e-19
3
 Atoms. Timestep: 6950
Li -0.19608 -0.132932 -1.47907e-19
Li 2.54869 -0.131288 -2.21418e-19
Li 1.17775 2.24384 -1.33676e-18
3
 Atoms. Timestep: 7000
Li -0.0485927 -0.00973097 -6.38931e-19
Li 2.68339 -0.0145901 -7.87531e-19
Li 1.31318 2.35642 -4.8386e-19
3
 Atoms. Timestep: 7050
Li -0.020014 0.0153424 -1.70462e-19
Li 2.72562 0.0206645 -1.90211e-19
Li 1.35738 2.39316 1.08682e-18
3
 Atoms. Timestep: 7100
Li -0.128772 -0.0773664 4.99862e-19
Li 2.60415 -0.0798921 6.28064e-19
Li 1.23549 2.28923 1.10217e-18
3
 Atoms. Timestep: 7150
Li -0.22989 -0.16153 3.8599e-19
Li 2.51354 -0.163182 4.82347e-19
Li 1.14041 2.21462 -4.76743e-19
3
 Atoms. Timestep: 7200
Li -0.159841 -0.10394 -2.72147e-19
Li 2.57523 -0.0992759 -3.38855e-19
Li 1.21176 2.26453 -1.38001e-18
3
 Atoms. Timestep: 7250
Li -0.0335515 0.00444526 -4.69034e-19
Li 2.70888 -0.000652786 -5.99301e-19
Li 1.33324 2.37945 -3.00074e-19
3
 Atoms. Timestep: 7300
Li -0.0351096 0.00130663 3.2938e-20
Li 2.69927 0.00367016 2.16914e-20
Li 1.3341 2.36956 1.21942e-18
3
 Atoms. Timestep: 7350
Li -0.166135 -0.107731 4.3128e-19
Li 2.57817 -0.106159 5.49406e-19
Li 1.20737 2.26867 9.90513e-19
3
 Atoms. Timestep: 7400
Li -0.217651 -0.152339 1.57947e-19
Li 2.51499 -0.15689 2.36769e-19
Li 1.14475 2.21435 -6.6827e-19
3
 Atoms. Timestep: 7450
Li -0.131923 -0.0791575 -3.14335e-19
Li 2.61289 -0.0742968 -3.84324e-19
Li 1.24472 2.29793 -1.36878e-18
3
 Atoms. Timestep: 7500
Li -0.0196542 0.0148212 -2.71629e-19
Li 2.71416 0.0125883 -3.87213e-19
Li 1.34531 2.38219 -9.58124e-20
3
 Atoms. Timestep: 7550
Li -0.065073 -0.0225639 1.69667e-19
Li 2.67745 -0.0241012 1.70539e-19
Li 1.30483 2.35279 1.3133e-18
3
 Atoms. Timestep: 7600
Li -0.186423 -0.126237 3.09103e-19
Li 2.54961 -0.121856 4.2387e-19
Li 1.18538 2.24309 8.25064e-19
3
 Atoms. Timestep: 7650
Li -0.207222 -0.142297 -3.58868e-20
Li 2.53417 -0.146994 3.05602e-20
Li 1.15942 2.23179 -8.45146e-19
3
 Atoms. Timestep: 7700
Li -0.096034 -0.0499053 -2.93351e-19
Li 2.63955 -0.0478326 -3.69299e-19
Li 1.27357 2.31936 -1.28612e-18
3
 Atoms. Timestep: 7750
Li -0.0246266 0.0115187 -6.94583e-20
Li 2.71828 0.0130116 -1.80606e-19
Li 1.34811 2.38671 1.19843e-19
3
 Atoms. Timestep: 7800
Li -0.0896773 -0.0441603 2.50543e-19
Li 2.64452 -0.048399 2.59961e-19
Li 1.27373 2.32387 1.33656e-18
3
 Atoms. Timestep: 7850
Li -0.205314 -0.141297 1.48316e-19
Li 2.53785 -0.136814 2.67086e-19
Li 1.17014 2.23437 6.26443e-19
3
 Atoms. Timestep: 7900
Li -0.183675 -0.1234 -1.94363e-19
Li 2.55183 -0.125402 -1.32906e-19
Li 1.18236 2.24544 -9.69191e-19
3
 Atoms. Timestep: 7950
Li -0.0720291 -0.0286372 -2.12418e-19
Li 2.66884 -0.0301261 -2.94554e-19
Li 1.29713 2.34525 -1.15692e-18
3
 Atoms. Timestep: 8000
Li -0.0310465 0.00514573 1.24254e-19
Li 2.70667 0.0092549 1.23422e-20
Li 1.34136 2.37594 3.11991e-19
3
 Atoms. Timestep: 8050
Li -0.159754 -0.110074 -1.84993e-19
Li 2.52722 -0.108606 -9.62158e-20
Li 1.18501 2.21697 -6.21928e-19
3
 Atoms. Timestep: 8100
Li -0.0887691 -0.0540311 6.11044e-20
Li 2.56697 -0.0563092 5.50968e-20
Li 1.23712 2.24607 4.37726e-19
3
 Atoms. Timestep: 8150
Li 0.0178193 0.0315302 1.42255e-19
Li 2.63957 0.0282641 5.94735e-20
Li 1.32587 2.30207 1.29305e-19
3
 Atoms. Timestep: 8200
Li -0.112617 -0.083231 -2.11338e-19
Li 2.47547 -0.0836664 -1.04709e-19
Li 1.18106 2.15796 -5.79244e-19
3
 Atoms. Timestep: 8250
Li -0.0360329 -0.0230383 6.06979e-20
Li 2.52082 -0.0202392 1.59723e-20
Li 1.24481 2.19106 5.16504e-19
3
 Atoms. Timestep: 8300
Li 0.0597764 0.0542678 1.70247e-19
Li 2.59007 0.0567848 1.15942e-19
Li 1.3271 2.24549 -3.84168e-21
3
 Atoms. Timestep: 8350
Li -0.0768689 -0.0632831 -2.47541e-19
Li 2.43484 -0.0641583 -1.37992e-19
Li 1.17824 2.112 -4.98313e-19
3
 Atoms. Timestep: 8400
Li -0.00345785 -0.00205687 7.76542e-20
Li 2.50122 -0.00518508 2.05941e-21
Li 1.24616 2.16711 5.50202e-19
3
 Atoms. Timestep: 8450
Li 0.0682416 0.0591943 1.87542e-19
Li 2.57908 0.0577507 1.67851e-19
Li 1.32242 2.23352 -1.22711e-19
3
 Atoms. Timestep: 8500
Li -0.0884791 -0.070983 -2.88287e-19
Li 2.4402 -0.0688992 -1.89525e-19
Li 1.17767 2.11869 -3.91062e-19
3
 Atoms. Timestep: 8550
Li -0.0254771 -0.0144733 1.10737e-19
Li 2.5292 -0.0114303 1.31543e-20
Li 1.25448 2.19783 5.40054e-19
3
 Atoms. Timestep: 8600
Li 0.0277585 0.0347631 1.90382e-19
Li 2.61324 0.0349635 2.08155e-19
Li 1.32068 2.27394 -2.16211e-19
3
 Atoms. Timestep: 8650
Li -0.13405 -0.097088 -3.28173e-19
Li 2.48479 -0.100086 -2.53559e-19
Li 1.17277 2.17102 -2.68736e-19
3
 Atoms. Timestep: 8700
Li -0.0680782 -0.0368836 1.57626e-19
Li 2.58456 -0.0395926 5.20279e-20
Li 1.25589 2.26036 4.85422e-19
3
 Atoms. Timestep: 8750
Li -0.0245659 0.00375071 1.75612e-19
Li 2.65931 0.0045627 2.29011e-19
Li 1.31808 2.32787 -2.73052e-19
3
 Atoms. Timestep: 8800
Li -0.182632 -0.126573 -3.6182e-19
Li 2.5263 -0.123009 -3.22267e-19
Li 1.17492 2.21927 -1.44667e-19
3
 Atoms. Timestep: 8850
Li -0.101162 -0.055601 2.15339e-19
Li 2.62404 -0.0532594 1.14695e-19
Li 1.26346 2.30453 3.93113e-19
3
 Atoms. Timestep: 8900
Li -0.0511718 -0.0121958 1.42728e-19
Li 2.68086 -0.0137297 2.25247e-19
Li 1.31353 2.354 -2.87263e-19
3
 Atoms. Timestep: 8950
Li -0.192513 -0.131512 -3.83798e-19
Li 2.53776 -0.135234 -3.84828e-19
Li 1.1694 2.23311 -3.5251e-20
3
 Atoms. Timestep: 9000
Li -0.0931511 -0.0490293 2.75009e-19
Li 2.62755 -0.0508559 1.94362e-19
Li 1.26562 2.3071 2.78646e-19
3
 Atoms. Timestep: 9050
Li -0.0412313 -0.00783228 9.51678e-20
Li 2.66202 -0.00583207 1.95768e-19
Li 1.31214 2.33306 -2.60893e-19
3
 Atoms. Timestep: 9100
Li -0.169392 -0.119543 -3.88997e-19
Li 2.50853 -0.116074 -4.30299e-19
Li 1.17256 2.19949 4.32896e-20
3
 Atoms. Timestep: 9150
Li -0.0522838 -0.0247634 3.29213e-19
Li 2.59395 -0.0237904 2.767e-19
Li 1.27168 2.26701 1.63661e-19
3
 Atoms. Timestep: 9200
Li 0.00225097 0.0169393 3.76203e-20
Li 2.61386 0.0144477 1.42881e-19
Li 1.3059 2.27879 -2.00651e-19
3
 Atoms. Timestep: 9250
Li -0.118355 -0.0892297 -3.75507e-19
Li 2.45986 -0.092096 -4.49208e-19
Li 1.16826 2.14356 7.93776e-20
3
 Atoms. Timestep: 9300
Li 0.00071159 0.00719978 3.69915e-19
Li 2.55 0.00738237 3.52413e-19
Li 1.27552 2.21476 6.54069e-20
3
 Atoms. Timestep: 9350
Li 0.0392389 0.0364855 -2.3572e-20
Li 2.56611 0.0394034 7.14573e-20
Li 1.30521 2.22462 -1.17468e-19
3
 Atoms. Timestep: 9400
Li -0.0873354 -0.0722019 -3.44281e-19
Li 2.42541 -0.0702246 -4.39638e-19
Li 1.17074 2.10387 7.1836e-20
3
 Atoms. Timestep: 9450
Li 0.0254025 0.0227365 3.9459e-19
Li 2.53452 0.0212888 4.12696e-19
Li 1.27872 2.19578 -4.84236e-21
3
 Atoms. Timestep: 9500
Li 0.0416155 0.0377119 -8.33675e-20
Li 2.55921 0.0346847 -1.01571e-20
Li 1.29779 2.21804 -2.44595e-20
3
 Atoms. Timestep: 9550
Li -0.0988838 -0.0783644 -2.99385e-19
Li 2.43859 -0.0791599 -4.0377e-19
Li 1.16915 2.119 2.66834e-20
3
 Atoms. Timestep: 9600
Li 9.63363e-05 0.00862897 4.01864e-19
Li 2.56546 0.0110912 4.52934e-19
Li 1.28492 2.23008 -4.11246e-20
3
 Atoms. Timestep: 9650
Li -0.00383947 0.00943882 -1.36755e-19
Li 2.59311 0.0121861 -9.41135e-20
Li 1.29701 2.2584 6.57687e-20
3
 Atoms. Timestep: 9700
Li -0.144417 -0.104726 -2.44146e-19
Li 2.48454 -0.105073 -3.44591e-19
Li 1.16975 2.17213 -5.00164e-20
3
 Atoms. Timestep: 9750
Li -0.041612 -0.0136278 3.90672e-19
Li 2.6179 -0.0167963 4.67814e-19
Li 1.28541 2.2897 -3.7053e-20
3
 Atoms. Timestep: 9800
Li -0.0516194 -0.0184327 -1.78696e-19
Li 2.6354 -0.020788 -1.73225e-19
Li 1.28984 2.30856 1.4123e-19
3
 Atoms. Timestep: 9850
Li -0.184263 -0.127715 -1.8398e-19
Li 2.52479 -0.126508 -2.65636e-19
Li 1.17131 2.21821 -1.49567e-19
3
 Atoms. Timestep: 9900
Li -0.0716914 -0.0310757 3.62294e-19
Li 2.65118 -0.0275905 4.55798e-19
Li 1.29277 2.32686 7.66568e-21
3
 Atoms. Timestep: 9950
Li -0.0770952 -0.0350294 -2.06065e-19
Li 2.64982 -0.03313 -2.38256e-19
Li 1.288 2.32661 1.89782e-19
3
 Atoms. Timestep: 10000
Li -0.188691 -0.129639 -1.24696e-19
Li 2.53285 -0.131427 -1.78559e-19
Li 1.17053 2.22747 -2.54775e-19
3
 Atoms. Timestep: 10050
Li -0.0591562 -0.0218889 3.22186e-19
Li 2.64921 -0.025315 4.19544e-19
Li 1.29207 2.32372 8.49839e-20
3
 Atoms. Timestep: 10100
Li -0.0614835 -0.0266022 -2.17236e-19
Li 2.6273 -0.027831 -2.82432e-19
Li 1.28184 2.30186 2.03218e-19
3
 Atoms. Timestep: 10150
Li -0.159545 -0.113019 -7.49045e-20
Li 2.50388 -0.110806 -9.35836e-20
Li 1.17409 2.19338 -3.47076e-19
3
 Atoms. Timestep: 10200
Li -0.0203519 0.00031892 2.76897e-19
Li 2.6128 0.0032931 3.65901e-19
Li 1.2988 2.2806 1.81595e-19
3
 Atoms. Timestep: 10250
Li -0.0220881 -0.00533741 -2.12667e-19
Li 2.57828 -0.00507164 -3.00697e-19
Li 1.27831 2.24673 1.7711e-19
3
 Atoms. Timestep: 10300
Li -0.109447 -0.0829806 -3.88487e-20
Li 2.45962 -0.0856149 -2.32767e-20
Li 1.17281 2.14199 -4.09931e-19
3
 Atoms. Timestep: 10350
Li 0.0288369 0.0303187 2.32727e-19
Li 2.57219 0.0280868 3.02299e-19
Li 1.29858 2.23286 2.83893e-19
3
 Atoms. Timestep: 10400
Li 0.0105993 0.0123557 -1.95201e-19
Li 2.53644 0.0132565 -2.9352e-19
Li 1.27429 2.19959 1.14909e-19
3
 Atoms. Timestep: 10450
Li -0.0834726 -0.068334 -1.90676e-20
Li 2.43403 -0.0654948 2.81231e-20
Li 1.17775 2.11171 -4.36833e-19
3
 Atoms. Timestep: 10500
Li 0.0426859 0.0383923 1.94373e-19
Li 2.56142 0.0395908 2.363e-19
Li 1.30309 2.21969 3.79761e-19
3
 Atoms. Timestep: 10550
Li 0.00500394 0.00833465 -1.69306e-19
Li 2.53494 0.0063825 -2.65254e-19
Li 1.26827 2.19942 2.55525e-20
3
 Atoms. Timestep: 10600
Li -0.0964571 -0.0744288 -1.40525e-20
Li 2.45421 -0.0771008 5.74784e-20
Li 1.17657 2.1345 -4.2641e-19
3
 Atoms. Timestep: 10650
Li 0.0154035 0.0235099 1.65074e-19
Li 2.59395 0.0234656 1.75008e-19
Li 1.30463 2.25643 4.59018e-19
3
 Atoms. Timestep: 10700
Li -0.0404669 -0.0197559 -1.39071e-19
Li 2.56905 -0.0170537 -2.21062e-19
Li 1.26663 2.23997 -8.16268e-20
3
 Atoms. Timestep: 10750
Li -0.140126 -0.0998635 -2.35357e-20
Li 2.4995 -0.0976328 6.36683e-20
Li 1.18163 2.1861 -3.78057e-19
3
 Atoms. Timestep: 10800
Li -0.0262712 2.65909e-05 1.481e-19
Li 2.64014 -0.000904052 1.25057e-19
Li 1.30612 2.30935 5.11937e-19
3
 Atoms. Timestep: 10850
Li -0.0826997 -0.0444032 -1.09104e-19
Li 2.6061 -0.0475235 -1.66242e-19
Li 1.259 2.28427 -1.96666e-19
3
 Atoms. Timestep: 10900
Li -0.169634 -0.115571 -4.43137e-20
Li 2.53616 -0.117341 4.62687e-20
Li 1.18174 2.22765 -2.94788e-19
3
 Atoms. Timestep: 10950
Li -0.0499093 -0.0134736 1.44985e-19
Li 2.66579 -0.0118574 9.15279e-20
Li 1.30933 2.33821 5.32095e-19
3
 Atoms. Timestep: 11000
Li -0.102701 -0.0580478 -8.45734e-20
Li 2.61407 -0.0548696 -1.09694e-19
Li 1.25844 2.29464 -3.05467e-19
3
 Atoms. Timestep: 11050
Li -0.169274 -0.115212 -7.1791e-20
Li 2.53929 -0.11403 1.21267e-20
Li 1.18604 2.23055 -1.88259e-19
3
 Atoms. Timestep: 11100
Li -0.0357419 -0.00439816 1.54575e-19
Li 2.65672 -0.00646126 7.82546e-20
Li 1.30869 2.3275 5.17004e-19
3
 Atoms. Timestep: 11150
Li -0.0820351 -0.0462465 -7.02218e-20
Li 2.58869 -0.0491318 -6.16237e-20
Li 1.25084 2.26671 -3.93074e-19
3
 Atoms. Timestep: 11200
Li -0.134388 -0.0939991 -9.83043e-20
Li 2.51083 -0.0944066 -3.21436e-20
Li 1.18787 2.19668 -7.29423e-20
3
 Atoms. Timestep: 11250
Li 0.0018727 0.0170167 1.74294e-19
Li 2.619 0.0194244 8.56127e-20
Li 1.31251 2.28333 4.6906e-19
3
 Atoms. Timestep: 11300
Li -0.0461731 -0.0274343 -6.94961e-20
Li 2.54187 -0.025184 -2.99981e-20
Li 1.24981 2.21382 -4.48089e-19
3
 Atoms. Timestep: 11350
Li -0.0893188 -0.0672561 -1.19033e-19
Li 2.47164 -0.0678406 -7.69424e-20
Li 1.19065 2.15069 3.65684e-20
3
 Atoms. Timestep: 11400
Li 0.0430059 0.0417893 2.00547e-19
Li 2.58274 0.039179 1.11312e-19
Li 1.31061 2.24132 3.94342e-19
3
 Atoms. Timestep: 11450
Li -0.0186997 -0.0119828 -8.24246e-20
Li 2.50872 -0.0133432 -1.87724e-20
Li 1.24384 2.17671 -4.66559e-19
3
 Atoms. Timestep: 11500
Li -0.0689237 -0.0549432 -1.30058e-19
Li 2.456 -0.0533621 -1.16605e-19
Li 1.1949 2.1315 1.30536e-19
3
 Atoms. Timestep: 11550
Li 0.0464193 0.0431645 2.29078e-19
Li 2.57789 0.0456669 1.50077e-19
Li 1.31432 2.23537 3.02566e-19
3
 Atoms. Timestep: 11600
Li -0.0321588 -0.0210822 -1.07127e-19
Li 2.51373 -0.0208156 -2.75344e-20
Li 1.24103 2.18378 -4.5082e-19
3
 Atoms. Timestep: 11650
Li -0.0858214 -0.0633198 -1.29882e-19
Li 2.48136 -0.0656357 -1.45665e-19
Li 1.19576 2.16001 2.01866e-19
3
 Atoms. Timestep: 11700
Li 0.0171414 0.0271443 2.55961e-19
Li 2.61087 0.0250753 1.96717e-19
Li 1.31221 2.27333 2.03025e-19
3
 Atoms. Timestep: 11750
Li -0.07425 -0.0463507 -1.41323e-19
Li 2.54832 -0.0456131 -5.60615e-20
Li 1.23768 2.22468 -4.03431e-19
3
 Atoms. Timestep: 11800
Li -0.125496 -0.0861463 -1.16741e-19
Li 2.52449 -0.0833999 -1.59651e-19
Li 1.20187 2.20867 2.44211e-19
3
 Atoms. Timestep: 11850
Li -0.023219 0.00329855 2.77729e-19
Li 2.64978 0.00482424 2.45004e-19
Li 1.3146 2.31822 1.05578e-19
3
 Atoms. Timestep: 11900
Li -0.110921 -0.0681835 -1.82389e-19
Li 2.57934 -0.0696992 -1.01668e-19
Li 1.2329 2.26179 -3.29757e-19
3
 Atoms. Timestep: 11950
Li -0.146383 -0.0964709 -9.08022e-20
Li 2.55513 -0.0993324 -1.55175e-19
Li 1.20188 2.24317 2.54251e-19
3
 Atoms. Timestep: 12000