9
 Atoms. Timestep: 100
Li -1.05551 -2.18477 2.22784
Li -2.33917 -0.59225 0.419736
Li 0.406966 -0.345054 0.786017
Li -0.580893 -2.60601 -0.50232
Li 1.95692 -0.194105 -1.47957
Li 1.74258 1.94399 0.28132
Li -1.02273 1.85895 0.00868872
Li 0.64659 2.15463 -2.21377
Li -0.760452 -0.174175 -1.79156
9
 Atoms. Timestep: 150
Li -1.08973 -2.06576 2.25992
Li -2.38544 -0.578513 0.445088
Li 0.367707 -0.341497 0.81195
Li -0.445692 -2.57471 -0.457913
Li 1.95536 -0.338524 -1.53061
Li 1.70864 1.8621 0.273628
Li -1.08021 1.88893 0.0314543
Li 0.72986 2.1076 -2.20995
Li -0.754209 -0.160205 -1.70197
9
 Atoms. Timestep: 200
Li -1.19088 -1.99863 2.40768
Li -2.47105 -0.524203 0.448377
Li 0.326847 -0.266141 0.864641
Li -0.253964 -2.59793 -0.365255
Li 1.91579 -0.554209 -1.51715
Li 1.76822 1.82972 0.270264
Li -1.09123 1.94561 0.0744381
Li 0.806305 1.99376 -2.23685
Li -0.780897 -0.146632 -1.67063
9
 Atoms. Timestep: 250
Li -1.32025 -1.86401 2.4467
Li -2.45835 -0.501642 0.508926
Li 0.236026 -0.196239 0.998894
Li -0.0814363 -2.5504 -0.236044
Li 1.7672 -0.730643 -1.3373
Li 1.86229 1.77271 0.216426
Li -0.9784 1.98778 0.0263308
Li 0.88465 1.80578 -2.25928
Li -0.850407 -0.208172 -1.59096
9
 Atoms. Timestep: 300
Li -1.38123 -1.83938 2.56835
Li -2.5808 -0.353451 0.571283
Li 0.206676 -0.0894235 1.19681
Li -0.0518418 -2.535 -0.0181099
Li 1.76035 -0.797399 -1.09418
Li 1.96904 1.61254 0.1799
Li -0.839185 2.05849 -0.144304
Li 0.928009 1.56129 -2.32828
Li -0.910426 -0.305288 -1.54986
9
 Atoms. Timestep: 350
Li -1.48522 -1.79554 2.60082
Li -2.58044 -0.152326 0.755858
Li 0.0589665 0.052804 1.25971
Li -0.192637 -2.52068 0.32582
Li 1.81928 -0.933068 -0.945354
Li 2.03621 1.55069 0.144119
Li -0.686995 2.03496 -0.348098
Li 1.01722 1.32243 -2.39895
Li -0.842147 -0.472264 -1.3367
9
 Atoms. Timestep: 400
Li -1.68426 -1.65363 2.75119
Li -2.59455 0.118647 0.861159
Li 0.125138 0.140874 1.3566
Li -0.176466 -2.5765 0.621502
Li 1.81041 -1.22563 -0.796787
Li 2.00725 1.49997 0.0888725
Li -0.666721 2.10593 -0.551905
Li 1.1738 1.01101 -2.43091
Li -0.805358 -0.566009 -1.14602
9
 Atoms. Timestep: 450
Li -1.86186 -1.31264 2.83983
Li -2.53638 0.437066 0.878791
Li 0.10034 0.107086 1.486
Li -0.0656794 -2.60829 0.925875
Li 1.81379 -1.36284 -0.618743
Li 1.98554 1.34326 -0.00290143
Li -0.644617 2.04156 -0.647267
Li 1.24841 0.574666 -2.45857
Li -0.807056 -0.588429 -0.980145
9
 Atoms. Timestep: 500
Li -1.97497 -0.972892 2.80239
Li -2.49844 0.802508 0.811095
Li 0.121559 0.214324 1.58495
Li -0.0677631 -2.52786 1.27975
Li 1.85782 -1.49593 -0.437476
Li 1.96527 1.15874 -0.060989
Li -0.53171 1.91444 -0.628443
Li 1.17842 0.196687 -2.55925
Li -0.779238 -0.857217 -0.773662
9
 Atoms. Timestep: 550
Li -2.12995 -0.754444 2.72096
Li -2.52703 0.995628 0.749758
Li 0.157304 0.488331 1.63333
Li -0.0712339 -2.4119 1.69065
Li 1.87502 -1.75547 -0.310474
Li 2.17036 0.996153 -0.26539
Li -0.378464 1.73412 -0.810207
Li 1.01638 -0.094539 -2.41681
Li -0.810383 -0.925427 -0.492809
9
 Atoms. Timestep: 600
Li -2.17825 -0.646008 2.60729
Li -2.47999 1.13001 0.589659
Li 0.237279 0.836652 1.5522
Li 0.0735722 -2.15819 2.06766
Li 1.69538 -1.96419 -0.211428
Li 2.32118 0.696889 -0.275919
Li -0.28776 1.66837 -1.06335
Li 0.838535 -0.467052 -2.30933
Li -0.896469 -0.934981 -0.125163
9
 Atoms. Timestep: 650
Li -2.07594 -0.481585 2.39513
Li -2.38709 1.37033 0.426213
Li 0.198438 1.16295 1.50571
Li 0.417691 -1.80342 2.42775
Li 1.45824 -2.26821 -0.0850645
Li 2.13439 0.34656 -0.283682
Li -0.186471 1.55999 -1.18299
Li 0.693751 -0.831614 -2.27985
Li -0.919081 -0.947432 0.0701062
9
 Atoms. Timestep: 700
Li -1.98349 -0.20289 2.40449
Li -2.34377 1.56994 0.3169
Li 0.0836608 1.37254 1.51553
Li 0.764412 -1.23804 2.53224
Li 1.2994 -2.75914 -0.0184056
Li 1.80878 -0.068731 -0.151072
Li -0.142748 1.40237 -1.36104
Li 0.529871 -1.14819 -2.3256
Li -0.683472 -0.813567 0.0601015
9
 Atoms. Timestep: 750
Li -1.90979 0.0868719 2.54675
Li -2.32893 1.53457 0.206557
Li 0.173437 1.70599 1.38374
Li 0.970303 -0.698698 2.3565
Li 1.07685 -3.10682 -0.0684133
Li 1.90899 -0.407561 -0.028137
Li -0.157325 1.31746 -1.53332
Li 0.505057 -1.43398 -2.32237
Li -0.918904 -0.816706 0.231476
9
 Atoms. Timestep: 800
Li -1.75389 0.485948 2.71241
Li -2.34213 1.37899 0.160624
Li 0.270879 1.99517 0.938051
Li 0.851564 -0.495142 2.43557
Li 0.753949 -3.12167 -0.133778
Li 1.99197 -0.492815 -0.35648
Li -0.0508411 0.969683 -1.45437
Li 0.420128 -1.50184 -2.18264
Li -0.84561 -0.914987 0.287082
9
 Atoms. Timestep: 850
Li -1.4983 0.94253 2.64507
Li -2.32073 1.15908 0.107842
Li 0.350205 2.05325 0.818344
Li 0.961217 -0.298199 2.34571
Li 0.62245 -3.14816 -0.0579772
Li 1.88259 -0.495079 -0.147583
Li -0.0920104 0.867809 -1.64236
Li 0.123316 -1.7216 -2.55288
Li -0.765441 -0.88735 0.383811
9
 Atoms. Timestep: 900
Li -1.30378 1.29003 2.57167
Li -2.45922 1.26553 -0.110054
Li 0.428004 1.86277 0.647086
Li 1.3047 -0.102636 2.53017
Li 0.717077 -3.09999 -0.210495
Li 1.60258 -0.587682 -0.302855
Li -0.223464 0.817361 -1.81581
Li 0.0315036 -1.84348 -2.48784
Li -0.873604 -0.925709 0.466835
9
 Atoms. Timestep: 950
Li -1.28585 1.35901 2.40204
Li -2.42117 1.38803 -0.140083
Li 0.563309 1.67009 0.335746
Li 1.36056 -0.0131943 2.36219
Li 0.856288 -3.22717 -0.227295
Li 1.61403 -0.557827 -0.616683
Li -0.553916 0.770338 -1.93796
Li 0.0115221 -1.73186 -2.3473
Li -0.964472 -0.756559 0.784588
9
 Atoms. Timestep: 1000
Li -1.22076 1.54485 2.42654
Li -2.40962 1.42741 0.0352988
Li 0.44853 1.8724 0.181537
Li 1.38791 -0.093508 2.00205
Li 0.976812 -3.22274 -0.117504
Li 1.63531 -0.635701 -0.667166
Li -0.872339 0.864741 -2.15837
Li -0.0770345 -1.8681 -2.41733
Li -0.733028 -0.758689 0.641283
9
 Atoms. Timestep: 1050
Li -0.978091 1.66668 2.60218
Li -2.45058 1.3089 0.179717
Li 0.196936 1.95248 -0.0749877
Li 1.64002 -0.148545 1.8548
Li 0.97182 -3.00527 -0.0904846
Li 1.62962 -0.420656 -0.884287
Li -0.903104 0.71575 -2.13864
Li -0.145431 -1.87267 -2.28451
Li -0.867827 -0.846981 0.105933
9
 Atoms. Timestep: 1100
Li -0.685743 1.56596 2.41842
Li -2.57341 1.18896 0.435613
Li 0.153681 1.90838 0.001536
Li 1.50043 -0.245881 1.49886
Li 1.03933 -2.65804 -0.00206492
Li 1.57501 -0.00873073 -1.24794
Li -0.985464 0.63534 -2.21186
Li -0.138401 -1.99592 -2.39955
Li -0.829468 -0.847218 0.197692
9
 Atoms. Timestep: 1150
Li -0.564624 1.17445 2.46578
Li -2.74444 1.17085 0.654591
Li 0.166324 1.97745 -0.172366
Li 1.57556 -0.116824 1.30549
Li 1.43319 -2.43837 -0.12276
Li 1.34484 -0.0260059 -1.62062
Li -1.20256 0.657573 -2.13568
Li 0.0107517 -2.01699 -2.45127
Li -0.992911 -0.685292 0.30592
9
 Atoms. Timestep: 1200
Li -0.657757 0.725009 2.37931
Li -2.88997 1.34965 0.848473
Li 0.0245981 2.02449 -0.175578
Li 1.87547 0.20524 1.11927
Li 1.76422 -2.2587 -0.454124
Li 1.38051 0.118582 -1.58751
Li -1.58923 0.56484 -1.95169
Li -0.173801 -2.15177 -2.44231
Li -0.72811 -0.776201 0.18057
9
 Atoms. Timestep: 1250
Li -0.69747 0.470295 2.33691
Li -2.72573 1.29015 0.829425
Li -0.295837 1.94157 0.0650443
Li 1.95 0.341803 0.886524
Li 2.04927 -2.09483 -0.682608
Li 1.09187 0.37107 -1.8134
Li -1.80853 0.443527 -1.73279
Li -0.354755 -1.94085 -2.23837
Li -0.212096 -0.973994 0.122989
9
 Atoms. Timestep: 1300
Li -0.574989 0.385844 2.63463
Li -2.91065 0.963028 0.840533
Li -0.199048 1.89743 0.165134
Li 2.03475 0.436369 0.731713
Li 2.32421 -1.82828 -1.06127
Li 0.725653 0.62518 -2.15144
Li -1.81462 0.242659 -1.44167
Li -0.350994 -1.81321 -2.32586
Li -0.235225 -1.07245 0.418454
9
 Atoms. Timestep: 1350
Li -0.591028 0.58736 2.7976
Li -2.95294 0.477984 1.31534
Li -0.198124 1.79263 0.257125
Li 2.11019 0.330065 0.504372
Li 2.24129 -1.2944 -1.5205
Li 0.64121 0.770216 -2.14301
Li -1.91794 0.0838717 -1.29631
Li -0.100872 -1.92696 -2.32653
Li -0.218974 -1.05503 0.434481
9
 Atoms. Timestep: 1400
Li -0.495971 0.790532 2.78406
Li -2.74554 -0.179394 1.63107
Li -0.506086 1.74378 0.31777
Li 2.18541 0.361419 0.524263
Li 2.61319 -1.01415 -2.05196
Li 0.408935 0.790229 -1.97176
Li -2.05295 0.00879922 -1.17254
Li -0.223966 -1.91026 -2.18436
Li -0.146151 -0.949532 0.518689
9
 Atoms. Timestep: 1450
Li -0.227167 0.87421 2.88993
Li -2.5008 -0.911558 1.66925
Li -0.853973 1.96766 0.34933
Li 2.13792 0.459033 0.415602
Li 2.82058 -0.799998 -2.46272
Li 0.348414 0.692529 -1.81121
Li -2.30287 -0.0948678 -0.982431
Li -0.223736 -1.83872 -1.84198
Li -0.128779 -0.875806 0.675887
9
 Atoms. Timestep: 1500
Li -0.151098 0.92069 2.73735
Li -2.46171 -1.51336 1.89586
Li -1.09077 2.00269 0.431454
Li 2.29326 0.629475 0.189853
Li 2.59354 -0.528484 -2.6342
Li 0.311553 0.745497 -1.60112
Li -2.27665 -0.192048 -0.717648
Li -0.0643243 -2.07212 -1.53912
Li -0.0451641 -0.721467 0.743626
9
 Atoms. Timestep: 1550
Li -0.234751 1.18624 2.85807
Li -2.27738 -1.92419 2.02577
Li -1.1864 2.03957 0.425372
Li 2.57591 0.673509 0.0397821
Li 2.13369 -0.329935 -2.57947
Li -0.0559654 0.625165 -1.57971
Li -2.22548 -0.445758 -0.51483
Li 0.276181 -2.10577 -1.44316
Li 0.145497 -0.668166 0.934311
9
 Atoms. Timestep: 1600
Li -0.472794 1.48195 3.00882
Li -1.8401 -2.11362 2.01355
Li -1.24018 2.09823 0.467624
Li 2.44817 0.466008 -0.142492
Li 2.04983 -0.290868 -2.69479
Li -0.434619 0.564523 -1.56626
Li -2.32091 -0.86534 -0.216154
Li 0.598071 -2.01414 -1.21797
Li 0.407085 -0.499495 1.1836
9
 Atoms. Timestep: 1650
Li -0.81165 1.63917 3.11374
Li -1.19251 -2.35622 2.28359
Li -1.27244 2.07053 0.465174
Li 2.27922 0.225438 -0.355746
Li 2.01926 -0.226674 -3.07346
Li -0.507115 0.309314 -1.61839
Li -2.18632 -1.03246 -0.0724344
Li 0.805584 -1.82033 -0.660114
Li 0.101427 -0.192739 1.38672
9
 Atoms. Timestep: 1700
Li -1.32487 1.83168 3.30676
Li -0.591598 -2.58369 2.49701
Li -1.3302 2.06121 0.122062
Li 2.23725 0.413618 -0.464972
Li 1.76685 -0.287397 -3.29199
Li -0.29317 0.160983 -1.67586
Li -1.91557 -1.18387 0.215975
Li 0.701001 -2.10006 -0.143616
Li 0.0214887 0.119116 1.45662
9
 Atoms. Timestep: 1750
Li -1.90936 1.96091 3.17949
Li -0.101026 -2.51781 2.58981
Li -1.40326 2.12701 -0.270486
Li 2.0516 0.469561 -0.496883
Li 1.64304 -0.456937 -3.40027
Li -0.36151 -0.148874 -1.38036
Li -1.78908 -1.2786 0.479058
Li 0.795372 -2.15685 0.144733
Li 0.373501 0.288087 1.61185
9
 Atoms. Timestep: 1800
Li -2.3891 1.90258 2.64699
Li 0.104685 -2.20221 2.86193
Li -1.28616 2.05031 -0.414425
Li 2.07304 0.398179 -0.583652
Li 1.5024 -0.654419 -3.22616
Li -0.592575 -0.49193 -1.38084
Li -1.79813 -1.27676 1.10762
Li 1.33985 -1.95475 0.0134478
Li 0.363851 0.419509 1.71975
9
 Atoms. Timestep: 1850
Li -2.65823 1.61237 1.7635
Li 0.412746 -1.79859 2.98797
Li -0.980299 1.81037 -0.322018
Li 2.02205 0.722149 -0.768799
Li 1.36237 -0.901587 -2.83036
Li -0.821758 -0.835439 -1.20307
Li -1.81963 -1.06857 1.48555
Li 1.54725 -1.99205 0.183838
Li 0.261222 0.601289 1.56968
9
 Atoms. Timestep: 1900
Li -2.9465 1.38246 0.88757
Li 0.747614 -1.48431 2.99739
Li -0.680684 1.77138 -0.818824
Li 1.68984 0.876551 -0.706348
Li 1.26512 -1.28307 -2.42373
Li -0.934201 -1.16603 -0.751888
Li -1.8953 -1.04562 1.62397
Li 1.4965 -1.5692 0.348146
Li 0.579998 0.685009 1.65835
9
 Atoms. Timestep: 1950
Li -3.16555 1.31804 0.00750828
Li 0.819217 -1.58377 3.17875
Li -0.868442 1.82539 -1.3913
Li 1.90568 0.915128 -0.943939
Li 1.25191 -1.65829 -2.12417
Li -1.03327 -1.23611 -0.657395
Li -1.6409 -1.10947 2.14391
Li 1.54949 -1.32122 0.638602
Li 0.490041 1.09086 1.74272
9
 Atoms. Timestep: 2000
Li -3.25341 1.03064 -0.694718
Li 0.876844 -1.69925 3.57647
Li -0.810153 1.71298 -1.78714
Li 1.93191 0.828875 -1.14659
Li 1.33371 -1.88174 -1.91515
Li -1.22053 -0.97964 -0.426534
Li -1.35322 -0.844052 2.22498
Li 1.56708 -1.09548 0.789025
Li 0.211941 1.29221 1.60265
9
 Atoms. Timestep: 2050
Li -3.2888 0.685347 -1.19177
Li 0.962701 -1.73445 3.79717
Li -0.543509 1.50636 -1.96032
Li 1.71894 0.611312 -1.20773
Li 1.24866 -1.94076 -1.60479
Li -1.00482 -0.61295 -0.516443
Li -1.23282 -0.647722 2.29205
Li 1.32196 -0.853579 1.02038
Li 0.0697721 1.51658 1.09798
9
 Atoms. Timestep: 2100
Li -3.1912 0.477814 -1.55394
Li 0.855621 -1.68595 3.78306
Li -0.721396 1.7665 -2.21074
Li 1.85691 0.485828 -1.00616
Li 1.12453 -2.27315 -1.3627
Li -0.75569 -0.569034 -0.496819
Li -1.18601 -0.542984 2.30733
Li 1.27116 -0.838609 1.30934
Li -0.0396842 1.90519 0.371267
9
 Atoms. Timestep: 2150
Li -2.95544 0.362185 -1.7342
Li 0.578628 -1.68937 3.85297
Li -0.885016 1.9956 -2.52078
Li 1.88059 0.320877 -1.05325
Li 1.19631 -2.56512 -1.14057
Li -0.805133 -0.55419 -0.50705
Li -1.29021 -0.245698 2.08639
Li 1.54144 -0.808803 1.3621
Li -0.0879043 2.12166 0.160852
9
 Atoms. Timestep: 2200
Li -2.90631 0.38894 -1.79144
Li 0.0950453 -1.6096 3.70073
Li -0.863018 2.11498 -2.64582
Li 1.7633 0.192112 -1.36948
Li 1.28887 -2.52126 -0.845434
Li -0.555572 -0.679073 -0.668643
Li -1.13615 0.133752 1.86826
Li 1.51322 -0.816076 1.41008
Li -0.0673641 1.94632 0.209831
9
 Atoms. Timestep: 2250
Li -2.87258 0.55822 -1.64497
Li -0.442733 -1.56741 3.42371
Li -0.652752 2.09601 -2.41668
Li 1.83144 0.143448 -1.52655
Li 1.58602 -2.55565 -0.672881
Li -0.801127 -0.850364 -0.755854
Li -1.15201 0.313702 1.82684
Li 1.34405 -0.551602 1.10397
Li 0.253046 1.76343 -0.0681126
9
 Atoms. Timestep: 2300
Li -2.93092 0.940872 -1.34651
Li -0.791733 -1.81522 3.19052
Li -0.536742 1.97674 -2.5013
Li 1.78099 -0.109079 -1.7416
Li 1.76739 -2.55139 -0.730316
Li -0.679257 -1.09418 -0.726461
Li -1.48636 0.643508 1.42477
Li 1.28883 -0.464102 1.12466
Li 0.647693 1.99544 0.0576883
9
 Atoms. Timestep: 2350
Li -2.84993 1.30802 -1.05779
Li -1.07406 -1.85874 2.62373
Li -0.377307 1.69005 -2.38577
Li 1.5389 -0.100871 -1.89935
Li 1.81021 -2.6486 -0.741278
Li -0.647305 -1.13568 -0.717973
Li -1.39641 0.767232 1.01504
Li 1.26716 -0.707725 1.30644
Li 0.762638 2.34317 0.20593
9
 Atoms. Timestep: 2400
Li -3.01828 1.70874 -1.29714
Li -1.297 -1.7749 1.78653
Li -0.486074 1.598 -1.95762
Li 1.6488 -0.229351 -1.68872
Li 1.69599 -2.62989 -0.755691
Li -0.80682 -1.24854 -0.741147
Li -0.865887 0.741245 1.32556
Li 1.24262 -0.760459 1.14094
Li 0.903721 2.33882 0.276004
9
 Atoms. Timestep: 2450
Li -3.31755 1.97752 -1.1916
Li -1.5879 -2.0898 1.41801
Li -0.484184 1.47861 -1.44811
Li 1.84331 -0.0232179 -1.46646
Li 1.4416 -2.99502 -0.812802
Li -0.86017 -1.11594 -1.20496
Li -0.957374 0.980639 1.37196
Li 1.50577 -0.699164 1.00904
Li 1.42702 2.26388 0.312208
9
 Atoms. Timestep: 2500
Li -3.42282 2.09394 -0.863278
Li -1.66362 -2.18608 1.12996
Li -0.467025 1.73002 -1.16552
Li 1.89047 0.183641 -1.57003
Li 1.03609 -3.07482 -0.940348
Li -0.711141 -1.20117 -1.56059
Li -0.965577 0.847508 1.26817
Li 1.38245 -0.560527 1.19497
Li 1.93576 1.92399 0.556925
9
 Atoms. Timestep: 2550
Li -3.19049 2.03985 -0.368873
Li -1.42876 -2.00262 0.700083
Li -0.313375 2.13491 -1.26585
Li 1.67852 0.0439473 -1.44526
Li 0.880505 -3.04664 -0.907383
Li -0.823969 -0.905588 -1.66584
Li -1.13364 0.508904 1.35775
Li 1.17965 -0.900787 1.04983
Li 2.18047 1.81064 0.817263
9
 Atoms. Timestep: 2600
Li -2.82871 1.96499 0.0525614
Li -1.30112 -2.19629 0.403589
Li -0.148071 2.20565 -1.04447
Li 1.549 -0.0638449 -1.3085
Li 0.839159 -2.91879 -1.03635
Li -1.21773 -0.261363 -1.72265
Li -1.07496 0.490659 1.20726
Li 1.19455 -1.23329 1.11056
Li 2.04025 1.57371 0.97302
9
 Atoms. Timestep: 2650
Li -2.78671 2.1761 0.00851897
Li -1.4665 -2.32062 0.280245
Li 0.00134638 2.21297 -0.59676
Li 1.35758 -0.183918 -1.20466
Li 0.884973 -2.71122 -1.58792
Li -1.66009 0.203445 -1.49918
Li -0.588164 0.193367 1.03314
Li 1.62297 -1.44481 1.56629
Li 1.71789 1.2764 1.11418
9
 Atoms. Timestep: 2700
Li -2.63706 2.33873 0.171413
Li -1.43951 -2.41785 0.0223745
Li -0.0070903 2.49478 -0.426256
Li 0.986025 -0.0814561 -0.759589
Li 0.735888 -2.66773 -2.06159
Li -1.95643 0.112182 -1.49721
Li -0.809318 0.0644614 1.05387
Li 2.20609 -1.8337 1.64416
Li 2.04089 1.2054 1.52693
9
 Atoms. Timestep: 2750
Li -2.56707 2.33089 0.495157
Li -1.26297 -2.47695 -0.33127
Li 0.130908 2.54526 -0.213861
Li 0.849358 -0.227502 -0.497645
Li 0.473493 -2.47198 -2.376
Li -1.97862 -0.239304 -1.56045
Li -1.04833 0.37217 1.57186
Li 2.56182 -1.77476 1.36573
Li 1.99982 0.956023 1.82303
9
 Atoms. Timestep: 2800
Li -2.60487 2.28553 0.633074
Li -0.990046 -2.60374 -0.108016
Li 0.282735 2.26746 0.112079
Li 0.573076 -0.570501 -0.237066
Li 0.317894 -1.98399 -2.69284
Li -1.80638 -0.267769 -1.49433
Li -0.944725 0.437926 1.81448
Li 2.79413 -1.49829 0.87081
Li 1.57554 0.746136 1.98114
9
 Atoms. Timestep: 2850
Li -2.5946 2.19389 0.568867
Li -0.942535 -3.00649 0.40391
Li 0.204146 2.00274 0.263116
Li 0.597587 -0.611465 -0.10243
Li 0.17742 -1.34789 -2.83498
Li -1.75496 -0.133477 -1.37077
Li -1.33307 0.124956 1.84734
Li 3.15861 -1.2149 0.383669
Li 1.72105 0.618013 2.28234
9
 Atoms. Timestep: 2900
Li -2.62696 2.01688 0.414783
Li -0.913103 -3.02243 0.935909
Li 0.0430034 1.85384 0.319006
Li 0.664503 -0.914802 0.0946099
Li 0.181709 -0.73972 -2.805
Li -1.8686 0.0100694 -0.970854
Li -1.60584 -0.357048 1.5743
Li 3.55938 -0.764485 -0.0245815
Li 1.83072 0.382148 2.3853
9
 Atoms. Timestep: 2950
Li -2.96315 2.08046 0.53412
Li -0.857929 -3.10717 1.46521
Li 0.0468087 1.42654 0.362823
Li 0.763857 -1.17465 0.116549
Li 0.371852 -0.159277 -2.58577
Li -1.78095 -0.241943 -1.13013
Li -1.66187 -0.484976 1.68694
Li 3.67415 -0.16601 -0.329585
Li 1.69599 0.167824 2.17396
9
 Atoms. Timestep: 3000
Li -3.00525 1.84384 0.658926
Li -0.712226 -3.28933 1.90991
Li -0.120235 1.15611 0.119545
Li 0.756718 -1.60148 -0.210184
Li 0.978475 0.353146 -2.304
Li -1.8718 -0.552214 -1.01867
Li -1.61466 -0.186859 1.81533
Li 3.33082 0.462528 -0.509796
Li 1.56206 0.0768736 2.06747
9
 Atoms. Timestep: 3050
Li -2.86421 1.49798 0.602008
Li -0.552496 -3.00417 2.19552
Li -0.188945 1.31141 -0.157385
Li 0.629632 -1.79187 -0.359711
Li 1.26306 0.532775 -2.43033
Li -1.87542 -0.949441 -0.766302
Li -1.32714 -0.377692 1.92864
Li 2.95856 1.05972 -0.166555
Li 1.26624 -0.0438786 1.76595
9
 Atoms. Timestep: 3100
Li -2.83223 1.16676 0.423175
Li -0.204564 -2.80364 2.30823
Li -0.176636 1.39341 -0.273177
Li 0.65852 -1.81667 -0.355726
Li 1.12773 0.332572 -2.97142
Li -2.02954 -1.23924 -0.538623
Li -1.44227 -0.341183 1.89015
Li 2.86118 1.72856 0.497939
Li 1.34242 -0.161669 1.55911
9
 Atoms. Timestep: 3150
Li -3.19634 1.22728 -0.0143628
Li 0.259027 -2.6372 2.21848
Li 0.0774807 1.16694 -0.427956
Li 0.639341 -1.88723 -0.47195
Li 0.900501 -0.00154622 -3.12698
Li -2.16179 -1.5631 -0.545497
Li -1.35314 -0.22258 2.0479
Li 2.75424 2.48779 0.824498
Li 1.37102 -0.237624 1.81426
9
 Atoms. Timestep: 3200
Li -3.24087 1.10788 -0.374852
Li 0.411861 -2.48531 2.06378
Li 0.265045 0.770112 -0.447975
Li 0.609227 -1.71517 -0.513659
Li 0.61189 -0.446911 -2.92659
Li -2.1131 -1.6528 -0.410674
Li -1.22135 -0.168946 1.68677
Li 2.40502 2.8988 1.04474
Li 1.53974 0.14309 1.84303
9
 Atoms. Timestep: 3250
Li -2.93681 0.803367 -0.565211
Li 0.292516 -2.28369 2.13282
Li 0.281378 1.19367 -0.631052
Li 0.810945 -2.02216 -0.429105
Li 0.279771 -0.842788 -2.77897
Li -2.09003 -1.76856 -0.520358
Li -1.0498 -0.0182834 1.36169
Li 1.91228 3.01309 1.10589
Li 1.73745 0.529842 1.82798
9
 Atoms. Timestep: 3300
Li -2.45938 0.646795 -0.713337
Li 0.059801 -2.00051 2.52775
Li 0.342508 1.66585 -0.968281
Li 0.996819 -2.16197 -0.269959
Li -0.149189 -1.04205 -2.66264
Li -1.81406 -2.10837 -0.850532
Li -0.827314 0.194526 1.21056
Li 1.39233 3.23765 0.899496
Li 1.66159 0.351172 1.79524
9
 Atoms. Timestep: 3350
Li -2.21433 0.596933 -1.34533
Li -0.12168 -1.72228 2.76919
Li 0.181298 1.70079 -1.35664
Li 0.988773 -1.96063 0.0961696
Li -0.239036 -0.83878 -2.58828
Li -1.63614 -2.52151 -0.699874
Li -0.725686 0.27998 0.983623
Li 0.998182 3.26045 0.829971
Li 1.93475 0.179065 1.70707
9
 Atoms. Timestep: 3400
Li -2.43197 0.438434 -1.86114
Li -0.266927 -1.39291 2.80841
Li 0.241733 1.81168 -1.59376
Li 0.851647 -1.74018 0.336811
Li 0.103184 -0.742904 -2.51884
Li -1.56437 -2.72091 -0.315105
Li -0.644689 0.40641 0.510352
Li 0.693516 2.88152 0.788403
Li 2.1472 0.222953 1.67102
9
 Atoms. Timestep: 3450
Li -2.54158 0.296432 -1.99103
Li -0.426171 -0.927181 2.60423
Li 0.313948 2.08917 -2.00745
Li 1.04425 -1.84582 0.236755
Li 0.487992 -0.965544 -2.19739
Li -1.61761 -2.61433 -0.0485416
Li -0.8627 0.328329 0.0151974
Li 0.651213 2.45718 0.964672
Li 2.04586 0.521968 1.72174
9
 Atoms. Timestep: 3500
Li -2.64843 0.158394 -2.21644
Li -0.551105 -0.501573 2.21913
Li 0.252895 2.11993 -2.21406
Li 1.33211 -1.86965 0.55391
Li 0.676799 -0.95254 -2.10399
Li -1.68249 -2.3061 0.121627
Li -0.720182 0.0950102 -0.234413
Li 0.409868 2.53399 0.827527
Li 1.99665 0.212947 1.89462
9
 Atoms. Timestep: 3550
Li -2.64589 0.0539715 -2.31221
Li -0.786214 -0.411982 2.33122
Li 0.174203 2.09506 -2.2802
Li 1.20536 -2.15104 0.682857
Li 1.02791 -1.01596 -2.44473
Li -1.62849 -2.11409 0.242982
Li -0.658489 0.257291 -0.488497
Li 0.344294 2.51513 0.61784
Li 2.01133 0.376209 2.15639
9
 Atoms. Timestep: 3600
Li -2.56465 -0.0019093 -2.22592
Li -0.86346 -0.368024 2.19729
Li 0.199563 2.23489 -2.44717
Li 0.887643 -2.09081 0.712565
Li 1.23599 -0.972513 -2.56199
Li -1.80423 -2.39809 0.373776
Li -0.358616 0.155017 -0.504261
Li 0.625218 2.50926 0.544108
Li 1.67287 0.607361 2.20561
9
 Atoms. Timestep: 3650
Li -2.33965 0.00963996 -1.89219
Li -1.15395 -0.440573 1.94045
Li 0.168584 2.17614 -2.30413
Li 0.767171 -1.89209 0.732251
Li 1.32701 -0.854803 -2.54509
Li -2.15143 -2.76256 0.41314
Li 0.053423 0.220475 -0.548337
Li 0.980111 2.59968 0.243749
Li 1.3747 0.641807 2.18666
9
 Atoms. Timestep: 3700
Li -2.17479 0.061462 -1.40613
Li -1.71548 -0.55899 1.60813
Li 0.0521302 2.15097 -2.35278
Li 0.860795 -2.144 0.873017
Li 1.45798 -0.79333 -2.66463
Li -2.24168 -2.81181 0.328956
Li 0.183984 0.337071 -0.188845
Li 1.49916 2.91772 0.0310637
Li 1.10905 0.511896 2.07781
9
 Atoms. Timestep: 3750
Li -2.2985 0.107301 -0.983133
Li -1.9201 -0.464744 1.44508
Li -0.0973215 2.05201 -2.33083
Li 0.7345 -2.22807 0.988835
Li 1.40318 -0.599164 -2.59055
Li -2.14844 -2.87851 -0.0564066
Li 0.433126 0.374696 -0.401469
Li 1.96042 2.82552 -0.158322
Li 0.978555 0.408217 2.61442
9
 Atoms. Timestep: 3800
Li -2.36157 0.282266 -1.06687
Li -1.60038 -0.510449 1.85377
Li -0.233647 2.02191 -2.27746
Li 0.365863 -2.06858 1.04659
Li 1.33085 -0.433402 -2.7048
Li -1.85695 -2.69836 -0.52694
Li 0.484312 0.298874 0.0940807
Li 2.24634 2.36272 -0.439217
Li 0.692939 0.226961 2.89416
9
 Atoms. Timestep: 3850
Li -2.12425 0.386284 -0.883166
Li -1.86022 -0.581648 1.91811
Li -0.239366 1.88948 -1.90427
Li 0.292486 -2.41091 1.2055
Li 1.14866 -0.210543 -2.60375
Li -1.50895 -2.15908 -0.967487
Li 0.187644 0.555993 0.316154
Li 2.43827 1.733 -0.861501
Li 0.76227 0.130716 3.0993
9
 Atoms. Timestep: 3900
Li -2.46052 0.685918 -0.543484
Li -2.16141 -0.740893 1.72965
Li -0.156588 2.3214 -1.59201
Li 0.318685 -2.45624 1.29836
Li 0.866592 -0.426582 -2.39991
Li -0.954011 -1.77224 -1.30293
Li 0.171042 0.39082 0.685479
Li 2.63654 1.15159 -1.19561
Li 0.869414 0.00808099 3.15332
9
 Atoms. Timestep: 3950
Li -2.68601 1.12697 -0.290353
Li -2.11731 -1.08351 1.56187
Li -0.00355643 2.51214 -1.10833
Li 0.289973 -2.19532 1.33358
Li 1.0161 -0.29368 -2.76138
Li -1.2155 -1.89814 -0.798097
Li 0.155771 0.222605 0.271572
Li 2.8314 0.829123 -1.11898
Li 0.894184 -0.240606 3.28938
9
 Atoms. Timestep: 4000
Li -2.49788 1.38548 0.0485127
Li -2.14209 -1.03619 1.84414
Li 0.148841 2.77681 -0.739333
Li 0.596959 -2.3109 1.45602
Li 1.11135 -0.0513289 -3.04916
Li -1.68895 -2.17926 -0.843649
Li 0.0841344 -0.0558011 -0.230233
Li 2.81416 0.593541 -0.789517
Li 0.773462 -0.32321 3.22338
9
 Atoms. Timestep: 4050
Li -1.98089 1.41687 0.455032
Li -1.8748 -0.785171 2.14265
Li 0.254932 2.94264 -0.43159
Li 0.744603 -2.51076 1.17118
Li 1.13522 0.159687 -3.00114
Li -1.98406 -2.39628 -0.993145
Li -0.0948721 -0.487815 -0.562673
Li 2.51573 0.38272 -0.426002
Li 0.516311 -0.0889418 3.06404
9
 Atoms. Timestep: 4100
Li -1.41291 1.38427 0.833431
Li -1.84093 -0.963974 2.04167
Li 0.471264 2.82629 -0.187042
Li 0.748581 -2.43616 0.878562
Li 1.17047 0.322073 -2.72519
Li -2.24874 -2.5838 -0.974958
Li -0.402276 -0.61623 -0.684691
Li 2.06365 0.243154 -0.0479751
Li 0.710299 0.316719 2.70604
9
 Atoms. Timestep: 4150
Li -1.24977 1.35064 1.29014
Li -1.79839 -1.57631 1.68785
Li 1.06124 2.67046 -0.178165
Li 0.718744 -2.20182 0.750563
Li 1.22222 0.465758 -2.37332
Li -2.47481 -2.77286 -0.801626
Li -0.909575 -0.481674 -0.772317
Li 1.76774 0.115907 0.0323242
Li 0.942448 0.816699 2.52079
9
 Atoms. Timestep: 4200
Li -1.44901 1.31056 1.42952
Li -1.79911 -1.86385 1.55329
Li 1.39274 2.48018 -0.180409
Li 0.682262 -2.28591 0.644944
Li 1.00307 0.705615 -2.67146
Li -2.63228 -2.97443 -0.758006
Li -1.21073 -0.244864 -0.808966
Li 2.12789 -0.0657329 0.121982
Li 1.17732 1.26175 3.01571
9
 Atoms. Timestep: 4250
Li -1.48559 1.15286 1.58053
Li -1.96977 -1.67342 1.79325
Li 1.35024 2.35517 -0.205004
Li 0.709249 -2.55707 0.39866
Li 0.687411 0.845708 -2.74888
Li -2.67974 -3.09614 -0.99264
Li -1.14818 -0.208348 -0.80838
Li 2.55467 -0.132494 0.297212
Li 1.27722 1.61961 3.08409
9
 Atoms. Timestep: 4300
Li -1.31668 1.07914 1.71733
Li -1.93762 -1.50116 1.70668
Li 1.00932 2.07326 -0.193702
Li 0.551838 -2.4811 0.128706
Li 0.446218 0.865223 -2.56098
Li -2.45989 -2.91342 -1.05024
Li -0.888776 -0.424239 -0.626566
Li 2.68846 -0.220786 0.442663
Li 1.19695 1.85842 2.74663
9
 Atoms. Timestep: 4350
Li -1.27581 1.21647 1.69588
Li -1.83911 -1.72874 1.56488
Li 0.565422 1.72109 -0.118184
Li 0.617923 -2.63009 0.0737525
Li 0.387494 0.749621 -2.60727
Li -1.99506 -2.52534 -0.944068
Li -0.909255 -0.198006 -0.489238
Li 2.42241 -0.204754 0.524438
Li 1.30149 2.00903 2.3887
9
 Atoms. Timestep: 4400
Li -1.73546 1.20771 1.88296
Li -1.59095 -1.85977 1.74951
Li 0.680809 2.25276 -0.378405
Li 0.762274 -2.66262 0.175408
Li 0.493683 0.459811 -2.92109
Li -1.73681 -2.78329 -1.17577
Li -1.16542 0.00738835 -0.565021
Li 1.83625 -0.161959 0.56357
Li 1.70926 2.0622 2.41912
9
 Atoms. Timestep: 4450
Li -2.01348 1.07867 1.94096
Li -1.20555 -1.71292 1.72393
Li 0.69879 2.66047 -0.550074
Li 0.743893 -2.60217 0.247743
Li 0.609696 0.0659197 -2.90864
Li -1.50107 -3.12079 -1.34145
Li -1.08446 0.222447 -0.557245
Li 1.10478 0.113676 0.531258
Li 1.87317 1.96079 2.23254
9
 Atoms. Timestep: 4500
Li -2.16378 0.980532 1.83641
Li -0.981593 -1.30248 1.62979
Li 0.593621 2.7595 -0.605079
Li 0.97421 -2.62021 0.0636285
Li 0.692625 -0.388131 -2.51172
Li -1.2537 -3.15143 -1.36232
Li -1.61082 0.280801 -0.92695
Li 0.993415 0.108142 0.512225
Li 1.9499 2.16397 2.18959
9
 Atoms. Timestep: 4550
Li -2.35249 1.29314 1.52688
Li -0.83397 -1.42305 1.41502
Li 0.380581 2.58938 -0.528047
Li 1.36735 -2.5299 -0.0894338
Li 0.662242 -0.972209 -1.9495
Li -1.13011 -2.85256 -1.35748
Li -1.83007 0.190287 -1.07287
Li 1.04305 0.291669 0.271176
Li 1.85363 2.4178 2.08866
9
 Atoms. Timestep: 4600
Li -2.3076 1.49916 1.0497
Li -0.819043 -1.48506 1.05316
Li -0.12521 2.76022 -0.518398
Li 1.77201 -2.62622 0.215071
Li 0.727715 -1.02606 -2.3226
Li -1.42442 -2.68896 -1.08501
Li -1.54254 -0.0215598 -0.977319
Li 1.32131 0.199103 0.546812
Li 1.52487 2.56496 1.83026
9
 Atoms. Timestep: 4650
Li -2.31327 1.60291 0.876385
Li -0.648596 -1.42171 1.37754
Li -0.492919 2.79922 -0.591646
Li 1.87592 -2.60292 0.482858
Li 1.01754 -0.900445 -2.52381
Li -1.87554 -2.95091 -1.1447
Li -0.989645 0.053283 -1.17027
Li 1.47588 0.0370099 0.412674
Li 1.04741 2.71562 1.60361
9
 Atoms. Timestep: 4700
Li -2.52871 1.29748 1.01723
Li -0.590063 -1.3519 1.5714
Li -0.464843 2.92624 -1.13081
Li 1.76061 -2.63443 0.650885
Li 1.58219 -0.956885 -2.59454
Li -2.11578 -2.92051 -1.12286
Li -0.723332 0.185254 -1.00619
Li 1.60852 0.360793 0.0624519
Li 0.542776 2.55723 1.4817
9
 Atoms. Timestep: 4750
Li -2.40843 0.928149 1.05177
Li -0.597397 -1.02373 1.48757
Li -0.421878 2.90439 -1.52594
Li 1.53638 -2.41591 0.653142
Li 2.01029 -0.980373 -2.36974
Li -2.14875 -2.60112 -0.975076
Li -0.836886 0.0750805 -0.856464
Li 2.0057 0.589403 -0.123284
Li -0.0864734 2.08455 1.29598
9
 Atoms. Timestep: 4800
Li -3.0629 0.583861 1.10316
Li -0.595801 -0.852293 1.71502
Li -0.31056 2.6269 -1.62638
Li 1.42454 -2.02176 0.344504
Li 2.19369 -1.10533 -2.05745
Li -1.9946 -2.06273 -0.667349
Li -0.517582 0.0327879 -1.17387
Li 2.0791 0.787821 -0.115365
Li -0.174324 1.62792 0.945631
9
 Atoms. Timestep: 4850
Li -3.666 0.187767 0.973756
Li -0.769983 -0.953942 2.01246
Li -0.0827992 2.61039 -1.68495
Li 1.14253 -1.67782 0.315843
Li 2.36553 -1.18119 -2.30734
Li -1.91702 -1.66607 -0.156168
Li 0.11214 -0.191524 -1.50529
Li 2.23565 0.907083 -0.13533
Li -0.380946 1.59521 0.916776
9
 Atoms. Timestep: 4900
Li -3.97854 -0.105671 0.875689
Li -1.00181 -0.820961 2.73237
Li 0.248911 2.62569 -1.62601
Li 0.954347 -1.60073 0.637516
Li 2.80296 -1.21967 -2.78201
Li -1.78398 -1.42841 -0.132529
Li 0.129971 -0.108599 -1.78056
Li 2.31185 0.914636 -0.292076
Li -0.638451 1.34186 0.892553
9
 Atoms. Timestep: 4950
Li -4.07149 -0.220828 0.858952
Li -1.24443 -0.667541 3.13606
Li 0.565186 2.61523 -1.33241
Li 0.831594 -1.27215 0.893133
Li 2.95969 -1.11618 -3.00488
Li -1.64267 -1.29501 -0.203956
Li 0.133498 -0.115098 -1.83945
Li 2.17165 0.73887 -0.445148
Li -0.643508 0.857207 0.683402
9
 Atoms. Timestep: 5000
Li -3.85871 -0.212495 0.888806
Li -1.42876 -0.531916 3.02465
Li 0.625599 2.73339 -1.0345
Li 0.99099 -1.27583 1.24524
Li 2.78207 -0.868211 -2.96654
Li -2.02601 -1.72952 -0.390036
Li 0.0883963 -0.230162 -1.95403
Li 2.41907 0.44481 -0.392988
Li -0.511801 1.08435 0.655109
9
 Atoms. Timestep: 5050
Li -3.46712 -0.000808371 1.01849
Li -1.54537 -0.493086 2.5474
Li 0.813122 2.7853 -0.936562
Li 0.895243 -1.36812 1.4767
Li 2.38667 -0.597713 -2.83461
Li -1.98704 -2.04359 -0.579929
Li 0.0200881 -0.250609 -1.61587
Li 2.47105 0.311166 -0.344376
Li -0.478955 0.933267 0.759999
9
 Atoms. Timestep: 5100
Li -3.2522 0.388767 0.631187
Li -1.44319 -1.01609 2.7608
Li 1.03582 2.5945 -0.904395
Li 0.80071 -1.43954 1.34731
Li 2.03862 -0.457402 -2.95072
Li -1.83104 -2.12836 -0.557664
Li -0.0983264 -0.380294 -1.38021
Li 2.21471 0.370964 0.0185478
Li -0.326938 1.18591 0.998084
9
 Atoms. Timestep: 5150
Li -2.67328 0.683396 0.188618
Li -1.49198 -1.43986 2.8265
Li 1.05203 2.49755 -1.0825
Li 0.570976 -1.73952 0.96648
Li 1.88494 -0.290945 -3.04534
Li -1.87691 -2.25564 -0.155318
Li -0.164063 -0.220827 -1.10966
Li 2.18313 0.423569 0.253023
Li -0.314717 1.29564 1.61602
9
 Atoms. Timestep: 5200
Li -2.36558 0.969151 0.0557872
Li -1.51591 -1.65076 2.62139
Li 0.80629 2.41217 -1.28289
Li 0.595357 -2.06563 0.798374
Li 1.72586 -0.075472 -2.9242