# LAMMPS data file for 5 Li atoms

5 atoms
1 atom types

0.0 20.0 xlo xhi
0.0 20.0 ylo yhi
0.0 20.0 zlo zhi

Masses

1 6.94

Atoms

1 1 -3.4276 -0.8569 0.4275
2 1 0.0 -0.8569 0.4275
3 1 0.0 -4.2826 0.4275
