# LAMMPS data file for 9 Li atoms

9 atoms
1 atom types

-6.906000 7.776000 xlo xhi
-6.932000 7.692000 ylo yhi
-8.144000 6.758000 zlo zhi

Masses

1 6.94

Atoms

1 1 -1.906000 0.819000 -1.896000
2 1 0.511000 0.004000 -0.754000
3 1 2.776000 1.632000 -0.743000
4 1 -0.040000 2.692000 -0.405000
5 1 0.901000 1.273000 -3.144000
6 1 1.212000 1.089000 1.758000
7 1 0.549000 -1.932000 1.218000
8 1 -1.541000 0.547000 1.075000
9 1 -1.406000 -1.932000 -1.144000
