9
 Atoms. Timestep: 50
Li -1.66431 0.761163 -1.88769
Li 0.719333 -0.276422 -0.896459
Li 2.58505 1.79753 -0.753102
Li -0.0301142 2.38561 -0.415883
Li 0.802732 1.60408 -2.91852
Li 1.20445 0.873066 1.49153
Li 0.267172 -1.70265 1.34759
Li -1.36285 0.425439 0.826524
Li -1.50533 -1.78553 -0.736317
9
 Atoms. Timestep: 100
Li -1.77325 0.760559 -1.79238
Li 0.740119 -0.348473 -0.920937
Li 2.56175 1.81677 -0.751862
Li -0.0383181 2.36204 -0.400756
Li 0.811275 1.39034 -2.94762
Li 1.26107 0.766557 1.54324
Li 0.277582 -1.79139 1.40961
Li -1.41063 0.441029 0.94932
Li -1.57815 -1.7684 -0.648121
9
 Atoms. Timestep: 150
Li -1.84325 0.723881 -1.64216
Li 0.628233 -0.432938 -0.757649
Li 2.54965 1.74973 -0.778366
Li -0.0411244 2.24017 -0.365241
Li 0.75925 1.15463 -2.97086
Li 1.3202 0.677975 1.53294
Li 0.230621 -1.87923 1.46314
Li -1.33254 0.394073 1.11547
Li -1.7009 -1.77343 -0.502883
9
 Atoms. Timestep: 200
Li -1.92861 0.635057 -1.47906
Li 0.490375 -0.575178 -0.70978
Li 2.53431 1.53847 -0.873499
Li -0.00361571 2.15226 -0.292107
Li 0.633382 0.934643 -2.886
Li 1.44739 0.608365 1.59246
Li 0.173567 -1.97688 1.60065
Li -1.26346 0.336655 1.28447
Li -1.89164 -1.84007 -0.263038
9
 Atoms. Timestep: 250
Li -2.00418 0.540805 -1.2547
Li 0.391657 -0.781813 -0.576963
Li 2.49306 1.18986 -0.982212
Li 0.04719 2.02658 -0.221712
Li 0.433809 0.800906 -2.80644
Li 1.50749 0.401913 1.52767
Li 0.168204 -2.04472 1.8061
Li -1.22966 0.342389 1.43568
Li -2.06527 -1.89937 0.0912906
9
 Atoms. Timestep: 300
Li -2.09535 0.449348 -0.982049
Li 0.192621 -1.01532 -0.553363
Li 2.44099 0.756159 -1.08426
Li 0.146324 1.84128 -0.20255
Li 0.148214 0.647852 -2.7102
Li 1.57595 0.158638 1.48968
Li 0.124655 -2.07239 2.02207
Li -1.14167 0.35332 1.64487
Li -2.13863 -1.88865 0.531654
9
 Atoms. Timestep: 350
Li -2.25417 0.410514 -0.663189
Li 0.0300396 -1.23541 -0.396054
Li 2.34873 0.275521 -1.24299
Li 0.231136 1.62408 -0.192622
Li -0.121745 0.435898 -2.66245
Li 1.71172 -0.0692483 1.40596
Li 0.110385 -2.13819 2.20966
Li -0.970277 0.423828 1.88719
Li -2.3278 -1.85929 0.961212
9
 Atoms. Timestep: 400
Li -2.29083 0.445963 -0.291037
Li -0.232648 -1.31895 -0.195045
Li 2.11933 -0.19326 -1.48471
Li 0.31653 1.39436 -0.226182
Li -0.37904 0.0677477 -2.5407
Li 1.84045 -0.334036 1.30594
Li 0.0974334 -2.19804 2.35816
Li -0.730025 0.375243 2.03573
Li -2.44984 -1.65562 1.4293
9
 Atoms. Timestep: 450
Li -2.312 0.658797 -0.00459368
Li -0.477476 -1.48568 -0.00685977
Li 1.87124 -0.63456 -1.64484
Li 0.419146 1.22857 -0.293598
Li -0.753804 -0.33103 -2.46338
Li 1.91113 -0.68319 1.10109
Li 0.122292 -2.31076 2.51128
Li -0.398649 0.427726 2.16659
Li -2.4964 -1.40349 1.96925
9
 Atoms. Timestep: 500
Li -2.18418 0.801712 0.311451
Li -0.754213 -1.5312 0.213536
Li 1.53742 -1.05556 -1.82917
Li 0.447194 0.940397 -0.439149
Li -1.12925 -0.604548 -2.30774
Li 1.85795 -1.11156 0.878115
Li 0.136397 -2.32304 2.63159
Li -0.0177689 0.456168 2.17539
Li -2.32509 -0.978447 2.43783
9
 Atoms. Timestep: 550
Li -2.06084 0.983268 0.586785
Li -1.03053 -1.56827 0.423195
Li 1.18319 -1.50322 -2.10763
Li 0.442822 0.630703 -0.619353
Li -1.46289 -0.708128 -2.12281
Li 1.74394 -1.55182 0.604775
Li 0.121566 -2.2309 2.78707
Li 0.461562 0.462953 2.09022
Li -2.03665 -0.488404 2.90912
9
 Atoms. Timestep: 600
Li -1.85009 1.18176 0.747129
Li -1.24929 -1.50465 0.683187
Li 0.758907 -1.85917 -2.35877
Li 0.449173 0.32069 -0.741083
Li -1.75582 -0.722921 -1.95372
Li 1.4352 -1.99093 0.294901
Li 0.184614 -2.05859 2.89638
Li 0.902 0.401235 1.88095
Li -1.59397 0.0345967 3.29173
9
 Atoms. Timestep: 650
Li -1.47525 1.35294 0.799517
Li -1.45294 -1.30528 0.951925
Li 0.263591 -2.02703 -2.58448
Li 0.398861 0.107977 -0.885404
Li -2.00046 -0.737538 -1.75232
Li 0.943444 -2.43823 0.159472
Li 0.360738 -1.89595 2.89595
Li 1.22622 0.303309 1.64914
Li -0.934726 0.575977 3.3936
9
 Atoms. Timestep: 700
Li -1.03469 1.62256 0.707435
Li -1.57194 -1.09172 1.20288
Li -0.178638 -2.05468 -2.70919
Li 0.396765 -0.108011 -0.978028
Li -2.25711 -0.73871 -1.46159
Li 0.27697 -2.70966 0.00493729
Li 0.50834 -1.8067 2.81269
Li 1.5586 0.311184 1.33846
Li -0.193665 0.993981 3.30263
9
 Atoms. Timestep: 750
Li -0.600131 1.71725 0.563899
Li -1.59828 -0.639385 1.46554
Li -0.607429 -2.03318 -2.85858
Li 0.322629 -0.301204 -0.988409
Li -2.33596 -0.719655 -1.13745
Li -0.497816 -2.79283 -0.151626
Li 0.666641 -1.58947 2.48219
Li 2.00499 0.338938 1.06468
Li 0.439 1.23314 3.1082
9
 Atoms. Timestep: 800
Li -0.22191 1.81893 0.41422
Li -1.6056 -0.193724 1.72947
Li -1.00578 -1.83187 -2.96048
Li 0.433743 -0.603027 -0.812808
Li -2.41069 -0.565918 -0.969919
Li -1.29085 -2.77545 -0.139601
Li 0.882181 -1.35289 1.90323
Li 2.49995 0.475127 0.652492
Li 0.894908 1.29458 2.84315
9
 Atoms. Timestep: 850
Li 0.0450478 1.74212 0.131783
Li -1.46703 0.0975599 1.83616
Li -1.27958 -1.40463 -2.84018
Li 0.335485 -0.901229 -1.03131
Li -2.4082 0.0401714 -0.868845
Li -1.75951 -2.79754 0.0144139
Li 1.05539 -1.24524 1.65978
Li 2.85025 0.751655 0.175765
Li 1.25275 1.21762 2.53931
9
 Atoms. Timestep: 900
Li 0.220849 1.4945 -0.201804
Li -1.08863 0.162082 1.81477
Li -1.92272 -0.975543 -3.0768
Li 0.515964 -0.964783 -0.97342
Li -2.04827 0.519823 -0.673655
Li -2.01367 -2.31578 -0.00406779
Li 1.13278 -1.3652 1.59405
Li 2.79357 0.914376 -0.246437
Li 1.51821 1.36163 2.26035
9
 Atoms. Timestep: 950
Li 0.295593 1.91442 -0.304946
Li -0.808266 0.123714 1.82387
Li -2.40552 -0.4113 -3.08767
Li 0.522037 -1.21332 -1.08538
Li -1.99255 0.772677 -0.810343
Li -1.9974 -1.71719 -0.0856373
Li 1.36393 -1.47394 1.53372
Li 2.93229 0.732507 -0.588299
Li 1.68257 1.43725 1.97119
9
 Atoms. Timestep: 1000
Li 0.476841 2.36979 -0.310341
Li -0.705884 0.165628 1.4942
Li -2.67654 0.0756943 -3.15319
Li 0.46943 -1.08125 -1.21779
Li -2.08137 1.32821 -0.83215
Li -1.91663 -1.64891 -0.0518538
Li 1.71311 -1.40999 1.41
Li 2.91635 0.345222 -0.752428
Li 1.84952 1.26473 1.72906
9
 Atoms. Timestep: 1050
Li 0.620498 2.55831 -0.306371
Li -0.416793 0.314205 1.04044
Li -2.7252 0.567988 -3.11717
Li 0.319897 -0.756671 -1.15423
Li -1.95874 1.46635 -0.691245
Li -2.04006 -1.60226 -0.241304
Li 1.75809 -1.47297 1.0319
Li 2.81839 0.138026 -0.790403
Li 2.05731 1.26554 1.64064
9
 Atoms. Timestep: 1100
Li 0.62984 2.45694 -0.354411
Li -0.134255 0.310358 1.3481
Li -2.5903 1.01979 -3.08759
Li 0.073224 -0.5079 -1.60157
Li -1.74723 1.44293 -0.67162
Li -2.3363 -1.4708 -0.485974
Li 1.52414 -1.73648 0.781332
Li 2.97353 0.381568 -0.89816
Li 2.33929 1.40377 1.68816
9
 Atoms. Timestep: 1150
Li 0.88587 2.18748 -0.315707
Li -0.140715 0.202673 1.64828
Li -2.31356 1.37351 -3.2118
Li 0.136604 -0.196019 -1.76555
Li -1.67089 1.1823 -0.375825
Li -2.48865 -1.2185 -0.747176
Li 1.256 -1.71103 0.222118
Li 2.72183 0.564571 -0.861631
Li 2.53397 1.434 1.68735
9
 Atoms. Timestep: 1200
Li 0.6582 2.21095 -0.103968
Li -0.0690355 0.104449 1.78148
Li -1.74316 1.66603 -2.9503
Li 0.120095 0.181966 -2.0069
Li -1.81601 1.26546 -0.153831
Li -2.4745 -1.32967 -1.12921
Li 1.02606 -1.66466 -0.178587
Li 2.80576 0.251398 -0.966345
Li 2.47927 1.31528 1.83381
9
 Atoms. Timestep: 1250
Li 0.560302 2.15456 0.0904123
Li -0.0923384 -0.0582929 1.67225
Li -1.58149 2.44136 -2.62313
Li 0.410519 0.167433 -1.91568
Li -2.07898 0.97759 -0.168638
Li -2.11529 -1.34035 -1.52983
Li 0.668245 -1.70442 -0.234653
Li 2.82433 0.120622 -0.881435
Li 2.3316 1.0782 1.8558
9
 Atoms. Timestep: 1300
Li 0.235111 1.98906 0.124748
Li -0.483893 -0.189139 1.67684
Li -1.36417 3.17817 -2.02179
Li 0.352512 0.353416 -1.94683
Li -1.93835 0.682184 -0.378908
Li -1.50719 -1.4883 -1.96008
Li 0.366912 -2.08633 -0.181798
Li 2.81635 0.0744471 -0.507511
Li 2.26895 0.825973 1.88039
9
 Atoms. Timestep: 1350
Li 0.232568 2.00885 0.477498
Li -0.711327 -0.391323 1.81507
Li -0.987252 3.59911 -1.20518
Li 0.476015 0.467875 -1.95344
Li -1.99457 0.323559 -0.918665
Li -1.23563 -1.92687 -2.53151
Li 0.292941 -2.144 -0.08556
Li 2.61322 -0.0942949 -0.495093
Li 1.77218 0.703717 2.25161
9
 Atoms. Timestep: 1400
Li 0.0330045 1.6519 0.69932
Li -1.08716 -0.538101 1.76545
Li -0.707876 3.96213 -0.596259
Li 0.557159 0.458482 -1.96275
Li -1.88457 -0.153344 -1.24681
Li -0.951519 -2.2322 -2.87609
Li 0.254246 -1.74417 -0.221288
Li 2.42591 -0.286315 -0.0995442
Li 1.4443 0.397161 2.7636
9
 Atoms. Timestep: 1450
Li -0.260881 1.17014 0.444861
Li -1.64744 -0.786243 1.77901
Li -0.405737 4.18802 -0.0615537
Li 0.820269 0.478162 -2.01364
Li -2.08333 -0.547771 -1.35631
Li -0.584743 -2.37276 -2.94301
Li 0.215883 -1.58764 -0.394353
Li 2.42394 -0.181714 0.644039
Li 1.171 -0.0405215 3.13666
9
 Atoms. Timestep: 1500
Li -0.568358 0.709944 0.19348
Li -2.01287 -1.14888 1.66357
Li -0.0656554 4.12019 0.44138
Li 1.10206 0.368027 -1.98068
Li -2.2344 -0.665852 -1.47901
Li -0.253847 -2.33295 -2.79769
Li 0.39529 -1.70943 -0.0808161
Li 2.249 0.115568 1.12539
Li 0.573971 -0.413309 3.22812
9
 Atoms. Timestep: 1550
Li -0.845263 0.765977 0.303834
Li -2.09321 -1.52056 1.37983
Li 0.26866 3.76871 0.85646
Li 1.28765 -0.077241 -1.63846
Li -1.99869 -0.929226 -1.5394
Li 0.0444814 -2.15957 -2.4393
Li 0.456231 -1.82424 0.245399
Li 1.86326 0.454641 1.16507
Li -0.258644 -0.703087 3.05123
9
 Atoms. Timestep: 1600
Li -1.09812 0.875142 0.537102
Li -2.41311 -1.99422 0.850618
Li 0.557716 3.11083 1.14132
Li 1.53109 -0.178551 -1.15195
Li -1.80557 -0.991108 -1.44623
Li 0.421251 -2.61977 -2.32959
Li 0.337714 -1.79247 0.691753
Li 1.45448 0.817613 1.33121
Li -0.686794 -0.623989 2.75029
9
 Atoms. Timestep: 1650
Li -1.64159 0.900918 0.455421
Li -2.76691 -2.43545 0.761962
Li 0.37384 3.17052 1.16445
Li 1.58783 -0.357247 -1.03083
Li -1.06891 -0.893555 -1.67116
Li 0.620843 -2.94567 -1.93058
Li 0.179975 -1.80504 0.644727
Li 1.67392 0.235915 1.98099
Li -1.02223 -0.262855 2.84073
9
 Atoms. Timestep: 1700
Li -1.96652 0.84945 0.230794
Li -2.73846 -2.54624 0.7138
Li 0.0152211 3.08353 1.02496
Li 1.91288 -0.444362 -0.781118
Li -0.615423 -0.67573 -1.89897
Li 0.791892 -3.22971 -1.35413
Li -0.326699 -1.71328 0.788444
Li 1.74204 -0.506871 2.26141
Li -1.15178 0.0376961 2.86657
9
 Atoms. Timestep: 1750
Li -2.05735 0.61633 0.071134
Li -2.96155 -2.55551 0.695222
Li -0.436219 2.69156 0.773561
Li 2.23714 -0.717572 -0.22789
Li -0.374523 -0.535192 -2.00469
Li 0.783391 -3.20976 -0.690999
Li -0.389776 -1.24032 0.670906
Li 1.74491 -1.08744 2.2942
Li -1.05034 0.431479 2.65961
9
 Atoms. Timestep: 1800
Li -2.65214 0.48716 -0.281711
Li -2.94405 -2.29574 0.711351
Li -0.690789 2.36627 0.40636
Li 2.33204 -1.04392 -0.116332
Li 0.078666 -0.476548 -2.01651
Li 0.759755 -3.26087 -0.239631
Li -0.373728 -0.897201 0.68651
Li 1.73002 -1.50597 2.64593
Li -0.795052 0.880162 2.56354
9
 Atoms. Timestep: 1850
Li -3.2807 0.33063 -0.601534
Li -2.62101 -1.86119 0.78806
Li -0.732861 2.19701 -0.319213
Li 2.29424 -1.25929 -0.0638283
Li 0.602374 -0.468249 -1.95434
Li 0.56478 -3.40334 0.0628124
Li -0.31854 -0.614081 0.72609
Li 1.52329 -1.71965 2.65063
Li -0.519079 1.23801 2.9133
9
 Atoms. Timestep: 1900
Li -3.5681 0.421332 -0.833631
Li -2.31692 -1.7048 1.0195
Li -0.782271 1.71923 -1.00003
Li 2.43805 -1.52344 0.118168
Li 0.889349 -0.414466 -1.95444
Li 0.060518 -3.16861 0.390373
Li -0.0218028 -0.173737 0.579235
Li 1.16073 -1.75034 2.39812
Li -0.166553 1.53142 3.0651
9
 Atoms. Timestep: 1950
Li -3.48562 0.518109 -0.850334
Li -2.22976 -1.21247 1.35982
Li -0.992002 1.43072 -1.82914
Li 2.60487 -1.78986 0.00996636
Li 1.11638 -0.422788 -2.05272
Li -0.283409 -2.90539 0.31123
Li 0.21733 0.133689 0.621529
Li 0.781458 -1.62955 2.63369
Li 0.243298 1.58352 2.92853
9
 Atoms. Timestep: 2000
Li -3.1603 0.569237 -0.629231
Li -2.22575 -0.326766 1.77619
Li -1.10278 1.14791 -2.44077
Li 2.29624 -1.96975 0.0523972
Li 1.28942 -0.558615 -2.03458
Li -0.223393 -2.5683 -0.0728562
Li 0.305611 0.22217 0.263627
Li 0.503892 -1.28773 2.63239
Li 0.647878 1.46384 2.75257
9
 Atoms. Timestep: 2050
Li -2.67887 0.634078 -0.394113
Li -1.77344 0.466562 2.20656
Li -0.953369 0.820516 -2.70757
Li 2.17054 -1.94908 0.367234
Li 1.35267 -0.807157 -2.30636
Li -0.710569 -2.07431 -0.478442
Li 0.0519956 0.41928 -0.0210977
Li 0.306781 -1.17538 2.16187
Li 0.976562 1.48995 2.51516
9
 Atoms. Timestep: 2100
Li -2.49813 0.652214 -0.245529
Li -1.32035 1.21076 2.54925
Li -0.776472 0.517473 -2.66327
Li 2.25728 -1.85644 0.234227
Li 1.28821 -1.15718 -2.34721
Li -1.30574 -1.61355 -0.924899
Li 0.349272 0.916883 -0.203294
Li -0.0542958 -1.25759 1.79794
Li 1.23831 1.61121 2.13303
9
 Atoms. Timestep: 2150
Li -2.55001 0.924575 0.115277
Li -1.11491 1.59721 2.57995
Li -0.77226 0.676991 -2.69015
Li 2.40014 -1.70441 0.027804
Li 1.09401 -1.51914 -2.28963
Li -1.53227 -1.49108 -1.17386
Li 0.806129 0.852975 -0.538326
Li -0.546155 -0.81255 1.23738
Li 1.82324 1.68216 2.06264
9
 Atoms. Timestep: 2200
Li -2.5564 1.38233 0.378869
Li -0.790245 1.75463 2.43804
Li -0.787404 1.12482 -2.75242
Li 2.37794 -1.44662 0.25445
Li 0.640617 -1.6222 -2.45815
Li -1.77076 -1.6607 -1.38002
Li 1.24801 0.585589 -0.880967
Li -0.502263 -0.406839 0.829199
Li 2.14287 1.58128 1.98518
9
 Atoms. Timestep: 2250
Li -2.69572 1.89198 0.358749
Li -0.356303 1.81252 2.35009
Li -0.793155 1.39649 -2.45702
Li 2.23029 -1.3891 0.610977
Li 0.464109 -1.50601 -2.55437
Li -2.19117 -1.62463 -1.49107
Li 1.66684 0.788273 -1.41502
Li -0.0985747 -0.386969 0.578687
Li 2.10847 1.22457 1.66047
9
 Atoms. Timestep: 2300
Li -2.49902 2.17272 0.332091
Li -0.374298 1.69535 2.16087
Li -0.846183 1.4953 -1.83373
Li 2.44619 -1.75621 0.780129
Li 0.289298 -1.15619 -2.41225
Li -2.37722 -1.37359 -1.46364
Li 1.94413 0.862055 -1.57559
Li -0.150756 0.00380088 -0.0605281
Li 2.15094 0.94725 1.13697
9
 Atoms. Timestep: 2350
Li -2.30338 2.2692 0.370067
Li -0.441948 1.44292 2.0735
Li -1.01306 2.10591 -2.03381
Li 2.49423 -2.28684 0.704072
Li 0.132592 -0.883105 -2.51917
Li -2.31637 -0.922584 -1.32235
Li 2.04827 0.890701 -1.76533
Li -0.0455341 -0.343924 0.233001
Li 2.17637 1.02574 0.980109
9
 Atoms. Timestep: 2400
Li -2.35065 2.21815 0.361545
Li -0.343055 1.20595 2.42235
Li -0.858593 2.43809 -2.31671
Li 2.29097 -2.51594 0.537083
Li -0.00962042 -0.695249 -2.78459
Li -2.22401 -0.314846 -1.06346
Li 1.88569 0.959397 -1.85213
Li 0.26794 -0.950858 0.221763
Li 2.11128 1.06004 1.10409
9
 Atoms. Timestep: 2450
Li -2.20229 2.27143 0.492047
Li -0.412327 0.727871 2.49928
Li -0.602488 2.40825 -2.2426
Li 2.39942 -2.90378 0.408524
Li -0.264729 -0.564804 -2.8972
Li -1.93678 0.0307877 -0.987383
Li 1.52415 1.07256 -1.52442
Li 0.297155 -0.817113 -0.0524998
Li 1.89578 0.981255 1.10167
9
 Atoms. Timestep: 2500
Li -1.86464 2.58837 0.871663
Li -0.741272 0.0870442 2.28175
Li -0.88116 2.3872 -2.00686
Li 2.44771 -3.16339 0.279243
Li -0.142578 -0.453191 -3.12078
Li -2.15019 0.154737 -1.06028
Li 1.58855 1.13865 -1.41602
Li 0.420217 -1.04935 -0.0590688
Li 1.84444 1.02976 1.43881
9
 Atoms. Timestep: 2550
Li -1.38786 2.48 1.06597
Li -1.13803 -0.483461 1.81311
Li -1.20536 2.47439 -1.6805
Li 2.33594 -3.2302 0.147967
Li 0.1327 -0.252195 -3.06667
Li -2.31445 0.126034 -0.849014
Li 1.67448 1.12517 -1.33821
Li 0.577689 -1.28407 -0.0663138
Li 1.57753 1.02537 1.80611
9
 Atoms. Timestep: 2600
Li -0.965299 1.959 1.2118
Li -1.4593 -0.861306 1.64038
Li -1.1487 2.50464 -1.42556
Li 2.31092 -3.37392 0.059961
Li 0.189602 -0.157157 -2.82459
Li -2.2394 -0.0839553 -0.755963
Li 1.55528 1.30037 -0.836222
Li 0.647509 -1.05602 -0.338175
Li 1.02124 0.811541 1.89296
9
 Atoms. Timestep: 2650
Li -1.55825 1.55949 1.14348
Li -1.34797 -1.21436 1.95237
Li -0.883752 2.354 -1.46382
Li 2.16546 -3.35142 -0.00339569
Li 0.0792335 0.013573 -2.65746
Li -1.9775 -0.145081 -1.16947
Li 1.35187 1.954 -0.208267
Li 0.458423 -1.12136 -0.168995
Li 1.23532 -0.0763044 2.10446
9
 Atoms. Timestep: 2700
Li -1.98425 0.944494 1.07258
Li -1.21846 -1.44511 2.11008
Li -0.857252 2.33101 -1.67652
Li 1.90994 -3.16154 -0.00755482
Li 0.507512 0.207761 -2.77061
Li -2.07364 -0.410487 -1.134
Li 1.0733 2.05784 0.638558
Li 0.320035 -0.999513 -0.189679
Li 1.43558 -0.680454 2.43925
9
 Atoms. Timestep: 2750
Li -2.10443 0.669756 1.08297
Li -1.08895 -1.73827 2.16285
Li -0.850806 2.16508 -1.50173
Li 1.65555 -2.93305 0.119654
Li 0.999608 0.194036 -2.75948
Li -2.28601 -0.821869 -1.46166
Li 0.45561 1.6538 1.34847
Li 0.381184 -0.414989 -0.139308
Li 1.5483 -1.0388 2.56644
9
 Atoms. Timestep: 2800
Li -2.23679 0.315134 0.793722
Li -0.943493 -1.91345 1.9228
Li -0.772555 1.73364 -1.05595
Li 1.28692 -2.57858 0.35678
Li 1.35318 0.148735 -2.65845
Li -2.17118 -1.11685 -1.61332
Li -0.0819013 1.49743 2.29509
Li 0.346388 -0.29317 -0.167365
Li 1.56176 -1.06924 2.3997
9
 Atoms. Timestep: 2850
Li -2.47593 0.0172459 0.578817
Li -1.01566 -1.96749 1.59969
Li -0.984716 1.93792 -0.916404
Li 1.18906 -3.20429 0.352029
Li 1.54952 0.059939 -2.49634
Li -1.68863 -1.3558 -1.6338
Li -0.50294 1.11853 2.9421
Li 0.381105 -0.235433 0.0983211
Li 1.58274 -0.49403 2.46405
9
 Atoms. Timestep: 2900
Li -2.62539 0.121964 0.542841
Li -1.01711 -2.04725 1.4807
Li -1.16357 2.12137 -0.813337
Li 1.13681 -3.74809 0.34369
Li 1.53748 -0.127956 -2.21843
Li -0.924972 -1.60027 -1.55215
Li -1.14684 0.53414 3.02415
Li 0.36101 0.0407878 0.139341
Li 1.64989 -0.0434584 2.56985
9
 Atoms. Timestep: 2950
Li -2.54961 0.196503 0.334277
Li -0.851638 -2.02879 1.25003
Li -1.25409 2.28866 -0.72841
Li 0.913833 -3.89079 0.332191
Li 1.55988 -0.353828 -2.13003
Li -0.320541 -1.94026 -1.23069
Li -1.63019 -0.105676 2.78309
Li 0.216307 0.367953 0.488437
Li 1.59157 0.354765 2.72411
9
 Atoms. Timestep: 3000
Li -2.5536 0.0436812 -0.159934
Li -0.852014 -2.21249 1.46929
Li -1.22284 2.66024 -0.767308
Li 0.907698 -4.10319 0.370964
Li 1.77194 -0.336101 -2.04382
Li -0.14712 -2.23786 -1.48031
Li -1.79356 -0.226484 2.90236
Li 0.122054 0.509681 0.519884
Li 1.41479 0.713508 3.07738
9
 Atoms. Timestep: 3050
Li -2.33463 -0.139144 -0.447829
Li -0.810743 -2.30726 1.47134
Li -1.11658 2.85982 -0.746777
Li 1.04098 -4.29094 0.447334
Li 1.85954 -0.281037 -1.82444
Li -0.245567 -2.27972 -1.6944
Li -1.79371 0.0930891 2.76428
Li 0.145817 0.363102 0.475529
Li 0.978658 1.0034 3.26583
9
 Atoms. Timestep: 3100
Li -2.05762 -0.30819 -0.555807
Li -0.735987 -2.10489 1.21485
Li -0.908131 2.72102 -0.608451
Li 1.05122 -4.10932 0.441939
Li 1.75096 -0.342507 -1.57214
Li -0.415656 -2.15048 -1.46631
Li -1.68875 0.351732 2.09115
Li 0.411108 0.189783 0.535977
Li 0.491482 1.25538 3.22319
9
 Atoms. Timestep: 3150
Li -2.04778 -0.154991 -0.969104
Li -0.857126 -1.91794 1.34009
Li -0.629465 2.20918 -0.327843
Li 1.03205 -3.65975 0.331126
Li 1.79654 -0.611329 -1.80854
Li -0.277563 -2.27232 -1.46375
Li -2.05392 0.678545 1.71129
Li 0.858581 0.36588 0.772689
Li 0.337726 1.58197 3.1131
9
 Atoms. Timestep: 3200
Li -2.00491 0.0458977 -1.52529
Li -1.047 -1.46322 1.55351
Li -0.49522 1.89856 -0.167935
Li 1.24579 -3.18879 0.435444
Li 1.87255 -0.795111 -2.01883
Li -0.456476 -2.36252 -1.77398
Li -2.15635 1.0555 1.65132
Li 1.45895 0.0503626 0.896414
Li 0.06901 1.8793 2.88759
9
 Atoms. Timestep: 3250
Li -1.88293 0.199777 -1.69958
Li -0.908739 -0.982128 1.46865
Li -0.0370399 1.76074 -0.186783
Li 1.31945 -2.61075 0.503489
Li 1.77231 -0.970624 -1.96871
Li -0.78399 -2.28618 -1.87379
Li -2.53385 1.20948 1.47918
Li 1.91576 -0.223772 0.885448
Li -0.00357533 2.04465 2.46781
9
 Atoms. Timestep: 3300
Li -1.78044 0.47968 -1.45492
Li -0.430405 -0.484428 1.09639
Li 0.368983 1.42953 -0.506543
Li 0.980968 -2.76346 0.262759
Li 1.45502 -1.08846 -1.65259
Li -0.973514 -2.21133 -1.67037
Li -2.69659 1.3777 0.989425
Li 2.33911 0.508062 0.893964
Li -0.0168411 1.96419 2.21359
9
 Atoms. Timestep: 3350
Li -1.90451 0.353652 -1.59245
Li -0.126933 -0.40037 0.574061
Li 0.858421 1.81866 -1.17439
Li 0.613373 -3.02368 0.360439
Li 1.2657 -0.791754 -1.4748
Li -1.34282 -2.12278 -1.29909
Li -2.50413 1.59014 0.859867
Li 2.76525 0.916834 0.992805
Li 0.00171079 1.91592 2.04251
9
 Atoms. Timestep: 3400
Li -1.78585 0.548955 -1.88658
Li -0.401729 -0.309183 0.516125
Li 1.12163 2.4717 -1.50608
Li 0.455028 -3.23359 0.5611
Li 1.39346 -0.858903 -1.86399
Li -1.68608 -2.34302 -0.933059
Li -2.20492 1.73081 0.929377
Li 2.74102 1.22568 0.857564
Li 0.338006 1.97231 1.81366
9
 Atoms. Timestep: 3450
Li -1.47463 0.789271 -1.74877
Li -0.500638 -0.470189 0.44468
Li 1.19565 2.78685 -1.48566
Li 0.395007 -3.13999 0.708399
Li 1.28937 -0.834487 -2.10435
Li -1.99434 -2.41372 -0.676729
Li -2.01893 1.78574 0.678559
Li 2.81987 1.30941 0.256601
Li 0.545089 2.17864 1.75086
9
 Atoms. Timestep: 3500
Li -0.979844 0.909898 -1.74353
Li -0.225653 -0.447499 0.506496
Li 0.946619 2.87065 -1.24935
Li 0.405374 -3.04813 0.759936
Li 0.957527 -0.665296 -2.03474
Li -2.23498 -2.40443 -0.535695
Li -1.89481 1.96879 0.593428
Li 2.94938 1.12459 -0.538478
Li 0.540964 2.25573 1.58172
9
 Atoms. Timestep: 3550
Li -1.1586 1.17777 -1.85745
Li -0.0934448 -0.0783092 0.590553
Li 0.591812 3.02551 -0.956767
Li 0.452613 -3.10217 0.689756
Li 1.10389 -0.927149 -1.85324
Li -2.16668 -2.21192 -0.378886
Li -1.8858 2.03093 0.556531
Li 2.83992 0.822124 -1.19748
Li 0.897639 2.14889 1.47536
9
 Atoms. Timestep: 3600
Li -1.519 1.01166 -1.96838
Li -0.115997 -0.179448 0.43575
Li 0.366955 3.26161 -0.886969
Li 0.477044 -2.83789 0.479874
Li 0.834622 -1.57344 -1.70179
Li -1.8538 -1.85006 -0.270143
Li -1.68456 2.07015 0.624275
Li 2.71907 0.943174 -1.52292
Li 1.37519 2.08999 1.83638
9
 Atoms. Timestep: 3650
Li -1.64924 0.693972 -1.66443
Li 0.38081 0.115723 0.391585
Li 0.266341 3.16624 -0.824577
Li 0.66148 -2.83258 0.815945
Li 0.505261 -1.76055 -2.06683
Li -1.96953 -1.65814 -0.554944
Li -1.49483 2.03372 0.807202
Li 2.25248 1.04949 -1.59526
Li 1.56603 1.90569 1.90505
9
 Atoms. Timestep: 3700
Li -1.42076 0.901095 -1.30541
Li 0.499317 -0.278022 0.242786
Li 0.321921 2.96594 -0.802232
Li 0.745487 -2.62923 1.06783
Li 0.165756 -1.54148 -2.28211
Li -1.90243 -1.95323 -0.593769
Li -1.47763 1.81382 1.18817
Li 1.81841 1.07376 -1.76646
Li 1.59553 1.88424 1.86754
9
 Atoms. Timestep: 3750
Li -1.35508 1.0413 -1.39082
Li 0.18878 -0.314865 0.336501
Li 0.194669 3.11262 -0.328005
Li 0.799624 -2.98817 1.34612
Li -0.000971622 -1.06008 -2.37366
Li -1.68741 -2.31783 -0.372876
Li -1.16219 1.48205 1.60669
Li 1.74503 0.781931 -2.21369
Li 1.37025 1.80394 1.59396
9
 Atoms. Timestep: 3800
Li -1.63422 1.24676 -1.46411
Li 0.299241 -0.633675 0.394113
Li 0.000731118 3.33 -0.079058
Li 0.752764 -3.25943 1.4578
Li -0.399137 -1.13567 -2.4374
Li -1.34678 -2.57126 -0.189321
Li -1.37574 1.26847 1.91477
Li 1.79861 0.914368 -2.18956
Li 1.68278 1.51594 1.52791
9
 Atoms. Timestep: 3850
Li -1.68909 1.37097 -1.10121
Li 0.411842 -0.66833 0.339636
Li -0.264042 3.19212 0.111394
Li 0.773402 -3.32698 1.49038
Li -0.646599 -1.19702 -2.29678
Li -1.32808 -2.95265 -0.249019
Li -1.33736 0.997823 1.7418
Li 1.63755 1.02957 -1.75147
Li 1.86686 1.25633 1.47281
9
 Atoms. Timestep: 3900
Li -1.77819 1.00102 -0.974026
Li 0.279293 -1.03384 0.232025
Li -0.132297 3.01971 0.473832
Li 0.878616 -3.19594 1.45821
Li -0.722836 -1.02528 -2.17209
Li -1.37845 -3.14957 -0.385033
Li -1.06567 0.736787 1.60587
Li 1.18623 1.10524 -1.02763
Li 1.78932 1.22967 1.40284
9
 Atoms. Timestep: 3950
Li -1.99402 0.880439 -0.854892
Li 0.201016 -1.09874 0.21115
Li -0.0197903 3.05856 0.795572
Li 1.10441 -3.58686 1.64956
Li -0.582875 -1.13563 -2.60161
Li -1.39297 -3.2135 -0.532984
Li -0.906616 0.58723 1.98909
Li 0.610106 1.13556 -1.13819
Li 1.67915 1.07659 1.92757
9
 Atoms. Timestep: 4000
Li -2.25041 0.689053 -0.338925
Li 0.0765449 -1.1046 0.223463
Li -0.0672526 2.98484 1.05386
Li 1.2553 -3.93719 1.73396
Li -0.28897 -1.2487 -2.71442
Li -1.37575 -3.14959 -0.763836
Li -1.11864 0.544748 2.09907
Li 0.447786 1.18217 -1.41181
Li 1.69756 0.856053 2.31296
9
 Atoms. Timestep: 4050
Li -2.38322 0.442908 -0.123876
Li 0.00435614 -0.966023 0.362558
Li -0.0752671 2.56414 1.07001
Li 1.28301 -3.99181 1.60561
Li 0.0566271 -1.29798 -2.49909
Li -1.39906 -3.02688 -1.0599
Li -1.15619 0.499082 2.38553
Li 0.31443 1.20813 -1.36198
Li 1.46644 0.655789 2.43157
9
 Atoms. Timestep: 4100
Li -2.32645 0.266063 -0.147589
Li -0.0442372 -0.921305 0.588323
Li -0.134342 2.23923 1.05648
Li 1.20293 -3.75216 1.30367
Li 0.54748 -1.25809 -2.25994
Li -1.50142 -2.83577 -1.13767
Li -1.44256 0.281309 2.79088
Li 0.210765 1.11833 -1.3116
Li 1.40879 0.426389 2.36994
9
 Atoms. Timestep: 4150
Li -2.18694 0.271018 -0.0939518
Li -0.121725 -1.12095 0.73898
Li -0.462592 1.9924 1.30579
Li 1.0417 -3.27811 0.848985
Li 1.08473 -1.61012 -2.0248
Li -1.54352 -2.40747 -1.03316
Li -1.63264 0.047669 2.6944
Li 0.154621 1.1242 -1.39109
Li 1.48442 0.262171 2.44651
9
 Atoms. Timestep: 4200
Li -2.47989 0.492598 -0.180966
Li 0.0438841 -0.7545 0.683071
Li -0.546742 1.87021 1.24584
Li 1.20068 -3.40591 0.333638
Li 1.40796 -1.88654 -1.57587
Li -1.58798 -1.99369 -1.1029
Li -1.91637 -0.279168 2.66758
Li 0.213999 0.928759 -1.1896
Li 1.47315 0.283306 2.63263
9
 Atoms. Timestep: 4250
Li -2.77631 0.702418 -0.207981
Li 0.239633 -1.11647 0.875362
Li -0.468546 1.82573 1.20425
Li 1.17395 -3.84766 0.476542
Li 1.52828 -1.42611 -1.72403
Li -1.47821 -1.6029 -1.26893
Li -2.1136 -0.486002 2.44918
Li 0.393402 0.896567 -1.41722
Li 1.39407 0.540545 2.93107
9
 Atoms. Timestep: 4300
Li -2.7472 0.887847 -0.133234
Li 0.34198 -1.37698 1.13838
Li -0.436826 1.50257 1.0084
Li 1.06077 -3.95546 0.578364
Li 1.60337 -1.36989 -1.81189
Li -1.15989 -1.10414 -1.33675
Li -1.99955 -0.535094 1.84797
Li 0.292225 1.13965 -1.42027
Li 1.1084 0.767193 3.05067
9
 Atoms. Timestep: 4350
Li -2.8503 1.27637 -0.550407
Li 0.720557 -1.27554 1.11759
Li -0.435182 1.37829 0.925768
Li 0.965104 -3.95155 0.542214
Li 1.58786 -1.43834 -1.70321
Li -0.997214 -0.841601 -1.04362
Li -2.02113 -0.785051 1.56736
Li 0.477101 1.5037 -1.73837
Li 0.861217 0.762945 3.23544
9
 Atoms. Timestep: 4400
Li -2.76608 1.53687 -0.870769
Li 0.992322 -0.872383 1.11471
Li -0.43804 1.39486 0.592622
Li 0.886612 -3.77908 0.372177
Li 1.53714 -1.43578 -1.46827
Li -0.940743 -0.6644 -0.988492
Li -2.09863 -0.985427 1.48239
Li 0.812878 1.6662 -1.95788
Li 0.623847 0.597552 3.37592
9
 Atoms. Timestep: 4450
Li -2.58121 1.63873 -1.06053
Li 0.975068 -0.726316 1.10764
Li -0.315758 1.62584 0.477071
Li 0.777845 -3.21288 0.178667
Li 1.71496 -1.41689 -1.45391
Li -1.00579 -0.565885 -1.40935
Li -1.91885 -0.937376 1.53936
Li 1.09428 1.42841 -1.86641
Li 0.205362 0.55114 3.35744
9
 Atoms. Timestep: 4500
Li -2.44517 1.71348 -1.12099
Li 1.04211 -0.457225 0.948837
Li -0.258843 1.80382 0.52081
Li 0.429961 -2.99 0.0613339
Li 2.02643 -1.33276 -1.76029
Li -0.878738 -0.599225 -1.43384
Li -1.55026 -0.632955 1.23557
Li 1.29338 1.1703 -1.61319
Li -0.364533 0.668253 3.2218
9
 Atoms. Timestep: 4550
Li -2.32946 1.63033 -1.063
Li 1.59279 -0.249672 0.646058
Li -0.346431 2.11494 0.691429
Li 0.0489919 -2.74211 -0.104313
Li 2.18545 -1.76958 -1.89829
Li -0.387476 -0.669535 -1.49587
Li -1.7786 -0.358413 0.824443
Li 1.38813 1.38102 -1.33146
Li -0.742922 0.931777 3.00971
9
 Atoms. Timestep: 4600
Li -2.23704 1.53416 -1.21698
Li 1.55475 -0.477139 0.593037
Li -0.205765 2.41778 0.617148
Li -0.0663244 -2.58677 0.0777843
Li 2.08673 -2.01017 -1.81371
Li -0.0826639 -0.310826 -1.97317
Li -1.75008 -0.321055 0.669267
Li 1.61041 1.80042 -1.36535
Li -0.978764 1.05019 2.99145
9
 Atoms. Timestep: 4650
Li -2.04285 1.64226 -1.4887
Li 1.26016 -0.278155 0.514523
Li -0.144442 2.4399 0.398556
Li -0.192942 -2.70283 0.0521327
Li 1.86893 -2.1152 -1.60925
Li -0.0853434 -0.0774534 -1.97618
Li -1.33791 -0.297609 0.591316
Li 1.91502 2.0473 -1.33986
Li -1.06425 1.11295 2.86719
9
 Atoms. Timestep: 4700
Li -2.05116 1.82233 -1.55114
Li 1.41265 0.192838 0.543883
Li -0.138778 2.2964 0.281428
Li -0.353974 -3.13605 -0.0396481
Li 1.72513 -2.01694 -1.47993
Li 0.0591506 -0.0653562 -1.83494
Li -1.54832 -0.0500308 0.305544
Li 2.16694 1.92009 -1.29308
Li -0.922168 1.2843 2.67522
9
 Atoms. Timestep: 4750
Li -2.24314 2.01665 -1.68156
Li 1.48476 0.038714 0.920413
Li -0.0206611 2.47466 0.0085262
Li -0.491221 -3.20688 -0.0563491
Li 1.85624 -1.96156 -1.29187
Li -0.0103623 0.228765 -1.84308
Li -1.84042 -0.176188 0.221859
Li 2.32714 1.71381 -1.35923
Li -0.622965 1.36703 2.47964
9
 Atoms. Timestep: 4800
Li -2.34203 2.02113 -1.55283
Li 1.15102 -0.281185 0.961373
Li 0.09239 2.52299 -0.310482
Li -0.451514 -2.88351 -0.079841
Li 1.79411 -1.65946 -1.05674
Li -0.0866942 0.283631 -1.70941
Li -1.75111 -0.179839 0.228601
Li 2.41369 1.29426 -1.27348
Li -0.379166 1.3806 2.18811
9
 Atoms. Timestep: 4850
Li -2.35756 1.8295 -1.18853
Li 0.789335 -0.460387 1.08879
Li 0.223896 2.59938 -0.402536
Li -0.389604 -2.34878 -0.0943725
Li 2.02303 -1.73491 -1.57318
Li -0.175744 -0.0482169 -1.88655
Li -1.70879 -0.119391 0.493039
Li 2.47894 0.79429 -0.951251
Li -0.52931 1.74904 2.11097
9
 Atoms. Timestep: 4900
Li -2.32659 1.86103 -0.988892
Li 0.918067 -0.150781 1.48653
Li 0.364552 2.30929 -0.563111
Li -0.36491 -2.3788 -0.410344
Li 2.17137 -2.14117 -2.20244
Li -0.381667 -0.203475 -1.75914
Li -1.90323 -0.195743 0.899995
Li 2.3736 0.552743 -0.534768
Li -0.664522 2.14641 2.05795
9
 Atoms. Timestep: 4950
Li -2.30146 1.92822 -0.759648
Li 0.630469 0.00667729 1.94641
Li 0.431996 2.11759 -0.547489
Li -0.0969093 -2.59741 -0.348693
Li 1.99025 -2.25727 -2.61129
Li -0.571786 -0.097467 -1.58769
Li -1.76835 -0.409086 1.15039
Li 2.42501 0.111108 -0.529567
Li -0.788746 2.3471 1.8224
9
 Atoms. Timestep: 5000
Li -2.31976 1.79005 -0.357253
Li 0.7506 0.113137 2.18346
Li 0.76067 2.13435 -0.443201
Li 0.370748 -2.5301 -0.167949
Li 1.56496 -2.10709 -2.73195
Li -0.761684 -0.437259 -1.39568
Li -1.83876 -0.49507 0.905798
Li 2.14971 -0.481719 -0.543697
Li -1.01396 2.37072 1.75462
9
 Atoms. Timestep: 5050
Li -2.43965 1.57786 -0.475129
Li 0.691333 0.111276 1.95976
Li 0.843569 1.83488 -0.305984
Li 0.52768 -2.82393 0.297306
Li 1.02448 -1.89583 -2.76577
Li -0.675345 -0.518293 -1.55491
Li -1.72165 -0.647057 1.15103
Li 1.98289 -0.379783 -0.497143
Li -0.890123 2.219 2.13733
9
 Atoms. Timestep: 5100
Li -2.42083 1.47902 -0.341859
Li 0.956114 -0.194897 1.67304
Li 0.226519 1.98602 -0.0813353
Li 0.395863 -2.96535 0.758131
Li 0.942814 -2.00718 -2.94407
Li -0.767577 -0.378285 -1.22714
Li -1.67818 -0.806188 1.21458
Li 2.22894 -0.531954 -0.61391
Li -0.868963 1.99296 2.27259
9
 Atoms. Timestep: 5150
Li -2.79431 1.61825 0.228376
Li 1.05192 -0.374959 1.59647
Li -0.051426 2.0538 -0.227683
Li 0.24773 -2.72239 1.01073
Li 0.934162 -2.02604 -2.92627
Li -0.297825 -0.683881 -1.02776
Li -1.72337 -0.846865 1.30531
Li 2.33433 -0.786972 -1.02416
Li -1.00138 1.47661 2.50696
9