8
 Atoms. Timestep: 110
Li 3.59879 2.82217 7.10919
Li 3.14218 4.3604 4.86476
Li 5.57124 4.60806 6.38485
Li 5.0688 2.36523 4.75614
Li 5.52595 4.87298 3.60043
Li 7.11477 6.57103 5.10746
Li 4.32633 6.83593 5.25239
Li 5.65194 7.5661 2.92098
8
 Atoms. Timestep: 120
Li 3.66277 2.91471 7.0702
Li 3.17782 4.28384 4.84015
Li 5.60202 4.60968 6.50152
Li 5.01805 2.33821 4.67908
Li 5.4574 4.92878 3.6967
Li 7.11464 6.53169 5.08891
Li 4.28562 6.82349 5.19884
Li 5.68169 7.5715 2.92079
8
 Atoms. Timestep: 130
Li 3.71539 2.98753 7.0472
Li 3.18796 4.22007 4.81499
Li 5.64153 4.62406 6.60343
Li 4.97712 2.30804 4.60491
Li 5.40618 4.97077 3.7736
Li 7.11759 6.49699 5.07701
Li 4.24224 6.81536 5.15627
Li 5.71199 7.57909 2.91879
8
 Atoms. Timestep: 140
Li 3.7472 3.02546 7.05059
Li 3.15108 4.17661 4.78747
Li 5.70036 4.66257 6.68406
Li 4.95213 2.26986 4.53434
Li 5.38924 4.98373 3.81259
Li 7.12801 6.47192 5.07653
Li 4.18953 6.82274 5.13549
Li 5.74245 7.58902 2.91513
8
 Atoms. Timestep: 150
Li 3.761 3.03065 7.07633
Li 3.06986 4.15293 4.75673
Li 5.77593 4.72384 6.74383
Li 4.9413 2.22574 4.46867
Li 5.4044 4.96151 3.81273
Li 7.14835 6.46029 5.0886
Li 4.12705 6.84751 5.13725
Li 5.77211 7.59942 2.91206
8
 Atoms. Timestep: 160
Li 3.76822 3.01865 7.11032
Li 2.96743 4.14299 4.72442
Li 5.85413 4.79565 6.78759
Li 4.93693 2.18311 4.40967
Li 5.43245 4.91425 3.79173
Li 7.17693 6.46306 5.1089
Li 4.06412 6.87691 5.15072
Li 5.7998 7.60729 2.91284
8
 Atoms. Timestep: 170
Li 3.77694 3.00263 7.14063
Li 2.86455 4.1408 4.69335
Li 5.92258 4.86621 6.8214
Li 4.93227 2.14748 4.35845
Li 5.45938 4.85677 3.7671
Li 7.21008 6.47928 5.12916
Li 4.0096 6.89894 5.16592
Li 5.8246 7.60978 2.92018
8
 Atoms. Timestep: 180
Li 3.79025 2.98934 7.16098
Li 2.77241 4.14271 4.66552
Li 5.97424 4.92794 6.85076
Li 4.92362 2.1205 4.31543
Li 5.48079 4.80041 3.74882
Li 7.2452 6.50778 5.14117
Li 3.96761 6.90821 5.17801
Li 5.84589 7.605 2.9355
8
 Atoms. Timestep: 190
Li 3.80883 2.98153 7.1688
Li 2.69592 4.14689 4.64191
Li 6.0065 4.97761 6.87867
Li 4.90916 2.10137 4.28079
Li 5.49649 4.75265 3.74133
Li 7.2807 6.54655 5.14058
Li 3.9394 6.9031 5.18521
Li 5.86299 7.5922 2.95891
8
 Atoms. Timestep: 200
Li 3.8326 2.98028 7.16318
Li 2.637 4.1525 4.62291
Li 6.02024 5.01601 6.90442
Li 4.88796 2.08829 4.25468
Li 5.50728 4.71838 3.74621
Li 7.31492 6.59155 5.12862
Li 3.92516 6.88335 5.18702
Li 5.87484 7.57155 2.98917
8
 Atoms. Timestep: 210
Li 3.86129 2.98594 7.1438
Li 2.59637 4.15912 4.60864
Li 6.01814 5.04622 6.92478
Li 4.85948 2.07959 4.23726
Li 5.5139 4.70054 3.76388
Li 7.34652 6.63722 5.11087
Li 3.92476 6.84909 5.18346
Li 5.87955 7.54418 3.02351
8
 Atoms. Timestep: 220
Li 3.89455 2.99862 7.11045
Li 2.5743 4.1665 4.59915
Li 6.003 5.07151 6.93611
Li 4.8235 2.07461 4.22856
Li 5.51676 4.70002 3.7945
Li 7.37574 6.67804 5.09491
Li 3.93794 6.80057 5.175
Li 5.87421 7.51201 3.05752
8
 Atoms. Timestep: 230
Li 3.9319 3.01819 7.06295
Li 2.57091 4.17435 4.59441
Li 5.97694 5.09439 6.93554
Li 4.7802 2.0741 4.22848
Li 5.51605 4.71521 3.83819
Li 7.4043 6.7098 5.08785
Li 3.96406 6.73843 5.16272
Li 5.85563 7.47743 3.08606
8
 Atoms. Timestep: 240
Li 3.97255 3.04423 7.00113
Li 2.58604 4.18221 4.59431
Li 5.94164 5.11671 6.92116
Li 4.73017 2.07977 4.23674
Li 5.51257 4.74126 3.89449
Li 7.43338 6.73043 5.0936
Li 4.0012 6.66475 5.14919
Li 5.82245 7.44254 3.10558
8
 Atoms. Timestep: 250
Li 4.01513 3.07578 6.92532
Li 2.61887 4.18925 4.59845
Li 5.8991 5.14015 6.89216
Li 4.67438 2.09338 4.2527
Li 5.5101 4.76804 3.96043
Li 7.46153 6.74025 5.11119
Li 4.0437 6.58609 5.14026
Li 5.77718 7.40896 3.11568
8
 Atoms. Timestep: 260
Li 4.0574 3.11097 6.83745
Li 2.6669 4.19434 4.60571
Li 5.8529 5.16649 6.84995
Li 4.61449 2.11536 4.27456
Li 5.51953 4.77679 4.02704
Li 7.48516 6.74101 5.13613
Li 4.07813 6.51871 5.14739
Li 5.72549 7.37824 3.11797
8
 Atoms. Timestep: 270
Li 4.09634 3.14697 6.74397
Li 2.72444 4.19696 4.61337
Li 5.80996 5.19729 6.80073
Li 4.55357 2.14253 4.29727
Li 5.55577 4.74692 4.08076
Li 7.50068 6.73476 5.16327
Li 4.08619 6.48552 5.18219
Li 5.67306 7.35096 3.11465
8
 Atoms. Timestep: 280
Li 4.12934 3.18094 6.66082
Li 2.78137 4.20049 4.61575
Li 5.7812 5.23287 6.75763
Li 4.49724 2.16464 4.30892
Li 5.6181 4.68135 4.11717
Li 7.50623 6.7235 5.18823
Li 4.06362 6.49326 5.23842
Li 5.6229 7.32486 3.10925
8
 Atoms. Timestep: 290
Li 4.15675 3.21141 6.61268
Li 2.82441 4.21447 4.60436
Li 5.77731 5.27178 6.73637
Li 4.4528 2.16439 4.29185
Li 5.69053 4.6035 4.14174
Li 7.50226 6.70944 5.20729
Li 4.02026 6.53106 5.29566
Li 5.57567 7.29585 3.10624
8
 Atoms. Timestep: 300
Li 4.18162 3.23662 6.6108
Li 2.84603 4.24709 4.57364
Li 5.79941 5.31241 6.74463
Li 4.42324 2.13138 4.23942
Li 5.76132 4.53031 4.15975
Li 7.49151 6.69554 5.21659
Li 3.96556 6.58793 5.34224
Li 5.53132 7.26062 3.10912
8
 Atoms. Timestep: 310
Li 4.20506 3.2542 6.63743
Li 2.853 4.29456 4.5271
Li 5.83628 5.35354 6.77894
Li 4.40375 2.07466 4.16547
Li 5.82503 4.46764 4.17636
Li 7.47845 6.68546 5.21174
Li 3.90864 6.65446 5.37936
Li 5.48978 7.21738 3.1198
8
 Atoms. Timestep: 320
Li 4.2261 3.26488 6.66842
Li 2.85841 4.34672 4.47262
Li 5.87326 5.39298 6.83189
Li 4.38815 2.01086 4.08642
Li 5.87864 4.41596 4.19677
Li 7.46719 6.68221 5.18885
Li 3.85724 6.72289 5.41232
Li 5.45103 7.1654 3.13892
8
 Atoms. Timestep: 330
Li 4.24441 3.27177 6.6899
Li 2.87171 4.39664 4.41614
Li 5.90157 5.42918 6.89609
Li 4.3733 1.95161 4.0108
Li 5.92008 4.37422 4.22472
Li 7.45869 6.68595 5.14738
Li 3.81536 6.78804 5.44501
Li 5.41489 7.10449 3.16615
8
 Atoms. Timestep: 340
Li 4.2607 3.278 6.6963
Li 2.89783 4.4418 4.36099
Li 5.91977 5.46301 6.96368
Li 4.3584 1.90275 3.94183
Li 5.94806 4.34123 4.26215
Li 7.45046 6.69356 5.09152
Li 3.78403 6.84675 5.47949
Li 5.38075 7.0348 3.20024
8
 Atoms. Timestep: 350
Li 4.27605 3.28597 6.6858
Li 2.93918 4.48214 4.309
Li 5.9299 5.49646 7.0272
Li 4.34354 1.86694 3.88051
Li 5.96181 4.31577 4.30974
Li 7.43974 6.70097 5.02829
Li 3.76276 6.89698 5.51675
Li 5.34702 6.95667 3.2389
8
 Atoms. Timestep: 360
Li 4.29155 3.29748 6.65811
Li 2.9969 4.51862 4.26122
Li 5.93399 5.53085 7.0811
Li 4.32906 1.8453 3.82719
Li 5.9611 4.29645 4.36743
Li 7.42627 6.7051 4.96513
Li 3.75056 6.93746 5.5574
Li 5.31056 6.87064 3.27863
8
 Atoms. Timestep: 370
Li 4.30789 3.31375 6.61385
Li 3.07125 4.55252 4.21821
Li 5.93313 5.56655 7.12191
Li 4.31528 1.83829 3.78201
Li 5.94681 4.28162 4.43465
Li 7.4126 6.70437 4.90863
Li 3.74648 6.96739 5.60186
Li 5.26656 6.7774 3.31507
8
 Atoms. Timestep: 380
Li 4.32457 3.33494 6.55536
Li 3.16087 4.58537 4.18006
Li 5.92768 5.60333 7.1478
Li 4.30253 1.84613 3.74518
Li 5.92251 4.26947 4.50971
Li 7.40201 6.69841 4.86345
Li 3.74981 6.98634 5.65038
Li 5.21002 6.67791 3.34427
8
 Atoms. Timestep: 390
Li 4.33767 3.35884 6.48959
Li 3.26035 4.61842 4.14615
Li 5.91777 5.64065 7.15812
Li 4.29113 1.86883 3.71688
Li 5.89861 4.25914 4.58751
Li 7.39515 6.68748 4.83092
Li 3.76009 6.99415 5.7028
Li 5.13923 6.57438 3.36423
8
 Atoms. Timestep: 400
Li 4.33565 3.37842 6.43298
Li 3.35465 4.64948 4.11583
Li 5.90378 5.67775 7.15337
Li 4.28146 1.90616 3.69733
Li 5.89826 4.25293 4.65544
Li 7.3889 6.67195 4.80917
Li 3.77691 6.99094 5.7583
Li 5.0604 6.47427 3.37379
8
 Atoms. Timestep: 410
Li 4.30238 3.38424 6.40612
Li 3.41267 4.6609 4.09399
Li 5.88686 5.71326 7.13539
Li 4.27403 1.95745 3.68658
Li 5.94963 4.25493 4.69766
Li 7.37895 6.65252 4.79525
Li 3.79929 6.97727 5.81453
Li 4.99619 6.40133 3.36668
8
 Atoms. Timestep: 420
Li 4.23891 3.37729 6.40858
Li 3.40366 4.62087 4.09456
Li 5.87023 5.7442 7.10785
Li 4.26967 2.02086 3.68447
Li 6.04954 4.26182 4.71501
Li 7.36367 6.63191 4.78699
Li 3.82432 6.95457 5.8664
Li 4.98 6.39038 3.33235
8
 Atoms. Timestep: 430
Li 4.16429 3.36734 6.4232
Li 3.34558 4.54264 4.1171
Li 5.86098 5.76516 7.07695
Li 4.27049 2.0906 3.69013
Li 6.16197 4.26287 4.7202
Li 7.34622 6.61727 4.7835
Li 3.84506 6.92616 5.90548
Li 5.0054 6.42987 3.27964
8
 Atoms. Timestep: 440
Li 4.0938 3.36003 6.4411
Li 3.27157 4.47476 4.14824
Li 5.86939 5.76907 7.05062
Li 4.28191 2.15313 3.70112
Li 6.25727 4.24644 4.7202
Li 7.33272 6.61943 4.78456
Li 3.85087 6.89745 5.92265
Li 5.04247 6.48159 3.22771
8
 Atoms. Timestep: 450
Li 4.03473 3.35627 6.46198
Li 3.18875 4.45071 4.18092
Li 5.90094 5.75195 7.03357
Li 4.31192 2.19194 3.71395
Li 6.32405 4.20693 4.71708
Li 7.32677 6.64481 4.78982
Li 3.83548 6.87157 5.91348
Li 5.07737 6.52772 3.18539
8
 Atoms. Timestep: 460
Li 3.98979 3.35608 6.48603
Li 3.09795 4.47535 4.21216
Li 5.94914 5.71675 7.02343
Li 4.3624 2.20606 3.72802
Li 6.36336 4.15048 4.71193
Li 7.32647 6.68838 4.79843
Li 3.8045 6.84524 5.88131
Li 5.1064 6.56356 3.1549
8
 Atoms. Timestep: 470
Li 3.95909 3.36041 6.5103
Li 3.00683 4.53153 4.2401
Li 6.00205 5.6695 7.01458
Li 4.42569 2.21084 3.74635
Li 6.38062 4.08881 4.70589
Li 7.32769 6.73962 4.80943
Li 3.76936 6.81284 5.83305
Li 5.12867 6.58834 3.1365
8
 Atoms. Timestep: 480
Li 3.94156 3.37098 6.53027
Li 2.92328 4.60102 4.26427
Li 6.05078 5.61477 7.00295
Li 4.49249 2.21882 3.77128
Li 6.38138 4.03167 4.70033
Li 7.32744 6.79054 4.8221
Li 3.73912 6.77192 5.77505
Li 5.14395 6.60219 3.12996
8
 Atoms. Timestep: 490
Li 3.93602 3.38949 6.54198
Li 2.85009 4.6698 4.28302
Li 6.0907 5.55527 6.9868
Li 4.55483 2.23272 3.80232
Li 6.37174 3.98648 4.69711
Li 7.32426 6.83711 4.83617
Li 3.72019 6.72568 5.71402
Li 5.15217 6.60534 3.13479
8
 Atoms. Timestep: 500
Li 3.9416 3.41723 6.54276
Li 2.78428 4.72274 4.29027
Li 6.11975 5.49315 6.96631
Li 4.60355 2.24732 3.83611
Li 6.36045 3.96128 4.69891
Li 7.31754 6.87771 4.85171
Li 3.71941 6.6846 5.65994
Li 5.15344 6.59787 3.15019
8
 Atoms. Timestep: 510
Li 3.95753 3.455 6.531
Li 2.71923 4.74446 4.27761
Li 6.1371 5.43132 6.94394
Li 4.62825 2.25333 3.86773
Li 6.35819 3.96437 4.70758
Li 7.307 6.91173 4.86906
Li 3.74445 6.66205 5.62461
Li 5.14825 6.57964 3.17467
8
 Atoms. Timestep: 520
Li 3.98278 3.50298 6.50582
Li 2.65277 4.73258 4.24461
Li 6.14262 5.37505 6.92593
Li 4.62426 2.24596 3.89472
Li 6.37043 3.99662 4.71854
Li 7.29242 6.93887 4.88872
Li 3.79683 6.65946 5.61222
Li 5.1379 6.55038 3.20564
8
 Atoms. Timestep: 530
Li 4.01532 3.5604 6.46679
Li 2.59089 4.69984 4.20093
Li 6.13697 5.33285 6.92354
Li 4.59707 2.23026 3.91942
Li 6.39309 4.04646 4.71736
Li 7.27341 6.95884 4.9113
Li 3.86856 6.66371 5.61801
Li 5.12469 6.50954 3.23884
8
 Atoms. Timestep: 540
Li 4.05143 3.62514 6.41372
Li 2.5408 4.65901 4.15599
Li 6.1228 5.31268 6.94744
Li 4.55583 2.21497 3.9455
Li 6.41868 4.10009 4.68925
Li 7.24938 6.97136 4.93745
Li 3.94926 6.66232 5.63871
Li 5.11183 6.45633 3.26815
8
 Atoms. Timestep: 550
Li 4.08557 3.69378 6.34655
Li 2.50656 4.61663 4.11453
Li 6.10694 5.31537 6.99645
Li 4.50722 2.20618 3.9746
Li 6.44085 4.15353 4.63422
Li 7.21949 6.97632 4.96765
Li 4.03113 6.65016 5.67522
Li 5.10223 6.38992 3.28698
8
 Atoms. Timestep: 560
Li 4.11239 3.763 6.26607
Li 2.48958 4.5753 4.07789
Li 6.09934 5.33531 7.06044
Li 4.45527 2.2065 4.00587
Li 6.45484 4.20938 4.56551
Li 7.18282 6.97405 5.00204
Li 4.10939 6.62769 5.72666
Li 5.09637 6.31067 3.29172
8
 Atoms. Timestep: 570
Li 4.1304 3.83177 6.17637
Li 2.48938 4.53617 4.04526
Li 6.10864 5.36426 7.13234
Li 4.4026 2.21549 4.03588
Li 6.45924 4.26662 4.49728
Li 7.13854 6.96563 5.04019
Li 4.18086 6.59955 5.78558
Li 5.09034 6.22241 3.28328
8
 Atoms. Timestep: 580
Li 4.14376 3.90103 6.08767
Li 2.50353 4.50055 4.01375
Li 6.13933 5.39224 7.21086
Li 4.35136 2.22937 4.05858
Li 6.45882 4.31512 4.4418
Li 7.08633 6.9532 5.081
Li 4.24204 6.57482 5.83966
Li 5.07485 6.13558 3.26288
8
 Atoms. Timestep: 590
Li 4.16003 3.96893 6.01524
Li 2.52706 4.47056 3.97811
Li 6.19076 5.41095 7.29612
Li 4.30356 2.24149 4.06664
Li 6.46505 4.33742 4.41095
Li 7.02673 6.93965 5.12271
Li 4.29067 6.56654 5.87847
Li 5.03614 6.06635 3.22797
8
 Atoms. Timestep: 600
Li 4.18617 4.02695 5.97196
Li 2.55349 4.44895 3.93248
Li 6.25629 5.41788 7.38521
Li 4.26105 2.24573 4.05575
Li 6.48554 4.32475 4.40947
Li 6.96177 6.92742 5.16279
Li 4.32868 6.58776 5.89932
Li 4.967 6.02248 3.17921
8
 Atoms. Timestep: 610
Li 4.22449 4.06594 5.95973
Li 2.57841 4.43761 3.87505
Li 6.32616 5.41544 7.47219
Li 4.22544 2.24038 4.02777
Li 6.51416 4.28796 4.42894
Li 6.89697 6.91729 5.19783
Li 4.35792 6.64329 5.90706
Li 4.87644 5.99399 3.12763
8
 Atoms. Timestep: 620
Li 4.27178 4.08691 5.97007
Li 2.60075 4.43626 3.81028
Li 6.39266 5.40732 7.55121
Li 4.19809 2.22807 3.98879
Li 6.54154 4.24235 4.45772
Li 6.84448 6.90856 5.22348
Li 4.3715 6.72362 5.90962
Li 4.77919 5.96881 3.08504
8
 Atoms. Timestep: 630
Li 4.32223 4.09889 5.99218
Li 2.61838 4.44102 3.74592
Li 6.45182 5.39651 7.61813
Li 4.17984 2.21296 3.94526
Li 6.5639 4.19697 4.48826
Li 6.82016 6.89901 5.23564
Li 4.3554 6.81259 5.91431
Li 4.68828 5.94395 3.0565
8
 Atoms. Timestep: 640
Li 4.36984 4.11027 6.01855
Li 2.62287 4.44279 3.69019
Li 6.50231 5.38494 7.67055
Li 4.17096 2.19905 3.90209
Li 6.58214 4.15572 4.51599
Li 6.8277 6.88493 5.23455
Li 4.30594 6.89873 5.92341
Li 4.61822 5.92547 3.04088
8
 Atoms. Timestep: 650
Li 4.40953 4.12611 6.04559
Li 2.60209 4.42985 3.6499
Li 6.54419 5.37361 7.70736
Li 4.17124 2.18946 3.86239
Li 6.59901 4.11988 4.53766
Li 6.85303 6.86314 5.22547
Li 4.23682 6.9764 5.93343
Li 4.58409 5.92344 3.03439
8
 Atoms. Timestep: 660
Li 4.43793 4.14905 6.07192
Li 2.55428 4.39886 3.62643
Li 6.57796 5.36285 7.72835
Li 4.18037 2.18635 3.82791
Li 6.61694 4.0894 4.55117
Li 6.87993 6.83254 5.21388
Li 4.16384 7.04273 5.94004
Li 4.58876 5.94012 3.0365
8
 Atoms. Timestep: 670
Li 4.45432 4.18035 6.0963
Li 2.49207 4.35805 3.61573
Li 6.60428 5.35266 7.73384
Li 4.19797 2.19112 3.79953
Li 6.63636 4.06349 4.55598
Li 6.899 6.7936 5.20282
Li 4.09609 7.09624 5.94082
Li 4.61992 5.96639 3.05117
8
 Atoms. Timestep: 680
Li 4.46053 4.22042 6.11668
Li 2.42887 4.31662 3.61355
Li 6.62375 5.3429 7.72448
Li 4.22364 2.2048 3.77767
Li 6.65547 4.04093 4.55314
Li 6.90606 6.74758 5.1935
Li 4.03746 7.1364 5.93479
Li 4.66422 5.99226 3.08237
8
 Atoms. Timestep: 690
Li 4.45964 4.26915 6.13032
Li 2.37213 4.27923 3.61768
Li 6.637 5.33334 7.7013
Li 4.25685 2.2283 3.76248
Li 6.67116 4.02006 4.54446
Li 6.89947 6.69654 5.18617
Li 3.98943 7.16316 5.92165
Li 4.71433 6.01211 3.13214
8
 Atoms. Timestep: 700
Li 4.45464 4.32592 6.13427
Li 2.32512 4.2474 3.62725
Li 6.64472 5.32362 7.66596
Li 4.29699 2.26243 3.75398
Li 6.68031 3.99872 4.53162
Li 6.87874 6.64351 5.18058
Li 3.95249 7.17689 5.90136
Li 4.767 6.0234 3.20117
8
 Atoms. Timestep: 710
Li 4.44761 4.38944 6.12574
Li 2.28916 4.2213 3.64203
Li 6.64779 5.31302 7.6212
Li 4.3434 2.30784 3.75213
Li 6.68071 3.97441 4.5158
Li 6.84457 6.59271 5.17641
Li 3.92669 7.17855 5.87413
Li 4.82007 6.02463 3.28876
8
 Atoms. Timestep: 720
Li 4.43969 4.45724 6.10216
Li 2.26485 4.20079 3.66208
Li 6.64735 5.3002 7.5714
Li 4.395 2.36475 3.75675
Li 6.67173 3.94502 4.49787
Li 6.80038 6.54957 5.17428
Li 3.91151 7.17046 5.84064
Li 4.86949 6.01388 3.39101
8
 Atoms. Timestep: 730
Li 4.43144 4.52445 6.0616
Li 2.2525 4.18583 3.68763
Li 6.64472 5.28287 7.52295
Li 4.44933 2.43226 3.7672
Li 6.65554 3.91056 4.47929
Li 6.75645 6.52086 5.17878
Li 3.90522 7.15792 5.80282
Li 4.90479 5.98714 3.49592
8
 Atoms. Timestep: 740
Li 4.4234 4.58209 6.00437
Li 2.25228 4.17666 3.71893
Li 6.6411 5.25746 7.48389
Li 4.5 2.50672 3.78146
Li 6.63971 3.87575 4.46336
Li 6.73268 6.5148 5.2001
Li 3.9038 7.15129 5.76478
Li 4.90703 5.93714 3.57931
8
 Atoms. Timestep: 750
Li 4.41587 4.61702 5.93634
Li 2.26403 4.17401 3.75619
Li 6.63672 5.21919 7.46229
Li 4.53325 2.57957 3.79492
Li 6.64046 3.85194 4.45626
Li 6.74157 6.53661 5.2393
Li 3.90165 7.1646 5.73219
Li 4.86645 5.85897 3.61872
8
 Atoms. Timestep: 760
Li 4.4074 4.61803 5.87327
Li 2.28631 4.17927 3.79936
Li 6.63052 5.16426 7.46161
Li 4.53357 2.64029 3.80154
Li 6.6767 3.85201 4.46473
Li 6.7688 6.5817 5.2773
Li 3.89625 7.20505 5.7079
Li 4.80045 5.76128 3.61048
8
 Atoms. Timestep: 770
Li 4.39519 4.58473 5.83771
Li 2.31389 4.19467 3.84794
Li 6.62117 5.094 7.4756
Li 4.50486 2.68605 3.79948
Li 6.7486 3.87776 4.48971
Li 6.79399 6.63864 5.30062
Li 3.89111 7.26363 5.68861
Li 4.73119 5.66243 3.55652
8
 Atoms. Timestep: 780
Li 4.38007 4.53028 5.83939
Li 2.335 4.22289 3.90125
Li 6.6084 5.01431 7.49258
Li 4.47159 2.71867 3.79065
Li 6.83609 3.92156 4.52659
Li 6.80693 6.69607 5.31127
Li 3.89155 7.32379 5.66848
Li 4.67039 5.57433 3.46599
8
 Atoms. Timestep: 790
Li 4.36704 4.47334 5.86703
Li 2.33429 4.26466 3.95938
Li 6.59306 4.93107 7.50361
Li 4.45512 2.73594 3.77575
Li 6.92031 3.97716 4.57132
Li 6.80483 6.74667 5.31553
Li 3.90042 7.37411 5.64379
Li 4.62492 5.49896 3.3598
8
 Atoms. Timestep: 800
Li 4.35988 4.42584 5.90478
Li 2.30476 4.31591 4.02342
Li 6.57686 4.84819 7.50472
Li 4.46079 2.73701 3.75541
Li 6.99137 4.04105 4.62183
Li 6.78793 6.78725 5.31792
Li 3.9182 7.40981 5.61342
Li 4.60021 5.43684 3.25469
8
 Atoms. Timestep: 810
Li 4.35848 4.39111 5.9406
Li 2.2546 4.37071 4.09349
Li 6.56242 4.7682 7.49582
Li 4.48169 2.72671 3.73273
Li 7.0454 4.11019 4.67662
Li 6.75746 6.81742 5.32092
Li 3.94408 7.42963 5.57746
Li 4.59589 5.38795 3.15856
8
 Atoms. Timestep: 820
Li 4.35964 4.36836 5.96556
Li 2.1987 4.42595 4.16753
Li 6.55326 4.69298 7.47983
Li 4.50957 2.71118 3.71197
Li 7.08158 4.18072 4.73344
Li 6.71541 6.83857 5.32588
Li 3.97608 7.43366 5.53646
Li 4.60576 5.35048 3.07553
8
 Atoms. Timestep: 830
Li 4.35918 4.3561 5.9734
Li 2.14847 4.48112 4.24275
Li 6.55294 4.62417 7.46232
Li 4.53975 2.69454 3.69653
Li 7.10095 4.24731 4.78808
Li 6.66539 6.85349 5.33371
Li 4.01011 7.42267 5.49103
Li 4.62321 5.3225 3.00838
8
 Atoms. Timestep: 840
Li 4.35483 4.35366 5.96127
Li 2.10935 4.53658 4.3168
Li 6.56283 4.56288 7.45068
Li 4.5704 2.67902 3.68819
Li 7.10604 4.30322 4.83342
Li 6.61458 6.86564 5.3451
Li 4.03792 7.3982 5.44181
Li 4.64405 5.3027 2.95894
8
 Atoms. Timestep: 850
Li 4.34866 4.3613 5.93043
Li 2.08234 4.59293 4.38765
Li 6.58041 4.5094 7.45214
Li 4.60115 2.6658 3.68746
Li 7.10016 4.34189 4.86036
Li 6.57525 6.87777 5.3607
Li 4.04584 7.36256 5.3891
Li 4.66618 5.29025 2.92836
8
 Atoms. Timestep: 860
Li 4.34701 4.37967 5.88574
Li 2.06552 4.65106 4.45313
Li 6.60071 4.46313 7.47
Li 4.63228 2.65547 3.69386
Li 7.0857 4.35942 4.8621
Li 6.55976 6.8912 5.38145
Li 4.02036 7.31752 5.33237
Li 4.68867 5.28443 2.91757
8
 Atoms. Timestep: 870
Li 4.35789 4.40903 5.8338
Li 2.05502 4.71227 4.51081
Li 6.61963 4.4231 7.50056
Li 4.66437 2.64808 3.70625
Li 7.06268 4.35622 4.83893
Li 6.56828 6.90658 5.40824
Li 3.96104 7.26203 5.2703
Li 4.71107 5.28461 2.9273
8
 Atoms. Timestep: 880
Li 4.38762 4.44882 5.78118
Li 2.04673 4.77803 4.55878
Li 6.6353 4.38855 7.53535
Li 4.69818 2.64314 3.72306
Li 7.02967 4.33658 4.79721
Li 6.58821 6.92288 5.44068
Li 3.88111 7.1936 5.20208
Li 4.73317 5.29029 2.95786
8
 Atoms. Timestep: 890
Li 4.43731 4.49709 5.73361
Li 2.03862 4.84914 4.59669
Li 6.64725 4.35911 7.56616
Li 4.73431 2.6397 3.74253
Li 6.98672 4.30678 4.74418
Li 6.60658 6.93627 5.47689
Li 3.79437 7.11268 5.12779
Li 4.75484 5.30114 3.00834
8
 Atoms. Timestep: 900
Li 4.50062 4.54928 5.69789
Li 2.03086 4.92347 4.62571
Li 6.65554 4.33461 7.58762
Li 4.77263 2.63643 3.76297
Li 6.93913 4.27254 4.68456
Li 6.61587 6.94163 5.51451
Li 3.70921 7.02698 5.04854
Li 4.77615 5.31695 3.0744
8
 Atoms. Timestep: 910
Li 4.56453 4.59777 5.68599
Li 2.01992 4.99056 4.64649
Li 6.6605 4.31497 7.597
Li 4.81133 2.6317 3.78288
Li 6.90052 4.23758 4.62
Li 6.61271 6.93457 5.55143
Li 3.63267 6.95756 4.96802
Li 4.79782 5.3372 3.14439
8
 Atoms. Timestep: 920
Li 4.61444 4.63588 5.71284
Li 1.99097 5.02595 4.65799
Li 6.66297 4.30014 7.5936
Li 4.84593 2.62366 3.80103
Li 6.88981 4.20392 4.5514
Li 6.59593 6.91211 5.58603
Li 3.57809 6.94041 4.8948
Li 4.82186 5.35983 3.19851
8
 Atoms. Timestep: 930
Li 4.64349 4.66478 5.77887
Li 1.93373 5.01225 4.66109
Li 6.66505 4.28988 7.57864
Li 4.87035 2.6112 3.81705
Li 6.91671 4.17449 4.48369
Li 6.5656 6.87281 5.61718
Li 3.55485 6.99583 4.83751
Li 4.85023 5.38066 3.22217
8
 Atoms. Timestep: 940
Li 4.65339 4.69105 5.86155
Li 1.86511 4.9669 4.6603
Li 6.67111 4.28352 7.55568
Li 4.88092 2.59581 3.83218
Li 6.97405 4.15323 4.42514
Li 6.52278 6.8169 5.64407
Li 3.55097 7.09802 4.79654
Li 4.88167 5.39647 3.22074
8
 Atoms. Timestep: 950
Li 4.64399 4.71876 5.93437
Li 1.80439 4.91303 4.65884
Li 6.68785 4.27979 7.52992
Li 4.87919 2.58206 3.84876
Li 7.04742 4.14173 4.38098
Li 6.47 6.74678 5.66592
Li 3.5543 7.21241 4.7671
Li 4.91285 5.40734 3.21031
8
 Atoms. Timestep: 960
Li 4.61025 4.74586 5.98273
Li 1.75885 4.86071 4.65784
Li 6.72037 4.27748 7.50477
Li 4.86989 2.57538 3.86896
Li 7.12412 4.13876 4.35178
Li 6.41257 6.6682 5.68153
Li 3.56231 7.32075 4.74476
Li 4.94163 5.41475 3.20382
8
 Atoms. Timestep: 970
Li 4.54732 4.76394 6.00574
Li 1.72978 4.81265 4.6577
Li 6.76691 4.27653 7.47834
Li 4.85755 2.5799 3.8941
Li 7.19564 4.1423 4.33615
Li 6.3594 6.59098 5.6889
Li 3.57588 7.41585 4.72685
Li 4.96752 5.41975 3.20842
8
 Atoms. Timestep: 980
Li 4.45418 4.76315 6.00977
Li 1.71691 4.76911 4.65862
Li 6.81995 4.27787 7.44531
Li 4.8451 2.59794 3.92478
Li 7.25729 4.15058 4.33239
Li 6.31994 6.52523 5.68588
Li 3.596 7.49509 4.71208
Li 4.99063 5.42293 3.22738
8
 Atoms. Timestep: 990
Li 4.33687 4.74181 6.00049
Li 1.7196 4.72973 4.66064
Li 6.87212 4.28201 7.40143
Li 4.83408 2.63035 3.96127
Li 7.30705 4.16204 4.33899
Li 6.29612 6.47368 5.67202
Li 3.6232 7.55759 4.69988
Li 5.01095 5.42468 3.26149
8
 Atoms. Timestep: 1000
Li 4.20852 4.70767 5.98083
Li 1.73623 4.694 4.66313
Li 6.91931 4.28834 7.3453
Li 4.82509 2.67655 4.00355
Li 7.34468 4.17498 4.35451
Li 6.2806 6.43169 5.64927
Li 3.65756 7.60322 4.69005
Li 5.028 5.42546 3.30956
8
 Atoms. Timestep: 1010
Li 4.0849 4.67035 5.95499
Li 1.76144 4.6614 4.66324
Li 6.96026 4.29517 7.27792
Li 4.81843 2.73402 4.05107
Li 7.37124 4.18719 4.37711
Li 6.26454 6.39566 5.62152
Li 3.69879 7.6322 4.6826
Li 5.04041 5.42592 3.36775
8
 Atoms. Timestep: 1020
Li 3.98546 4.63768 5.93406
Li 1.78107 4.63149 4.65279
Li 6.9952 4.3 7.20253
Li 4.81462 2.79709 4.10219
Li 7.38881 4.19582 4.40374
Li 6.24333 6.36798 5.59522
Li 3.74616 7.64522 4.6777
Li 5.04534 5.42662 3.42797
8
 Atoms. Timestep: 1030
Li 3.93211 4.61671 5.9368
Li 1.77358 4.60387 4.61859
Li 7.02473 4.2999 7.12529
Li 4.81517 2.85571 4.15367
Li 7.40002 4.19804 4.42896
Li 6.21799 6.35616 5.58065
Li 3.7982 7.64381 4.67571
Li 5.03821 5.4277 3.47652
8
 Atoms. Timestep: 1040
Li 3.92719 4.61428 5.9741
Li 1.7341 4.5781 4.55667
Li 7.04875 4.29229 7.05642
Li 4.82244 2.89677 4.2013
Li 7.40682 4.19296 4.44376
Li 6.19354 6.36745 5.58824
Li 3.85221 7.63097 4.67721
Li 5.01494 5.42908 3.49849
8
 Atoms. Timestep: 1050
Li 3.94899 4.63418 6.03789
Li 1.68245 4.5539 4.47869
Li 7.06592 4.27607 7.00896
Li 4.83791 2.91089 4.24295
Li 7.4095 4.18294 4.43647
Li 6.17428 6.40068 5.61901
Li 3.90364 7.61173 4.68287
Li 4.97731 5.4315 3.48936
8
 Atoms. Timestep: 1060
Li 3.9805 4.67409 6.11274
Li 1.63668 4.53134 4.39658
Li 7.07438 4.25233 6.9906
Li 4.86039 2.89973 4.28099
Li 7.4067 4.17248 4.39995
Li 6.16244 6.44476 5.66404
Li 3.94581 7.59301 4.69304
Li 4.93311 5.43415 3.45826
8
 Atoms. Timestep: 1070
Li 4.01682 4.72773 6.18557
Li 1.60405 4.51069 4.31591
Li 7.07322 4.22356 6.99577
Li 4.88689 2.87354 4.31986
Li 7.39633 4.1659 4.3393
Li 6.16133 6.48631 5.71464
Li 3.97145 7.5815 4.70727
Li 4.88991 5.43266 3.41787
8
 Atoms. Timestep: 1080
Li 4.0575 4.78874 6.24833
Li 1.58611 4.49221 4.23844
Li 7.06253 4.19222 7.01113
Li 4.91437 2.84303 4.36282
Li 7.37691 4.16613 4.26712
Li 6.17453 6.51687 5.76617
Li 3.97652 7.58 4.72437
Li 4.85154 5.4227 3.37782
8
 Atoms. Timestep: 1090
Li 4.10188 4.8519 6.29738
Li 1.58258 4.47607 4.16445
Li 7.04262 4.15998 7.02553
Li 4.94038 2.81526 4.41141
Li 7.34846 4.17475 4.19404
Li 6.2023 6.53498 5.81513
Li 3.96337 7.58551 4.7435
Li 4.8184 5.40343 3.34475
8
 Atoms. Timestep: 1100
Li 4.14795 4.91283 6.33174
Li 1.59287 4.46243 4.09373
Li 7.01369 4.12766 7.03273
Li 4.96304 2.79387 4.46626
Li 7.31224 4.1926 4.12618
Li 6.24218 6.54421 5.85759
Li 3.93891 7.59161 4.76473
Li 4.78911 5.37668 3.32324
