3
 Atoms. Timestep: 50
Li -1.29636 -1.05416 -6.38812e-18
Li 1.48292 -1.08917 -6.36942e-18
Li 0.0629616 1.35393 5.20004e-21
3
 Atoms. Timestep: 100
Li -1.03257 -0.833257 -1.27166e-17
Li 1.76262 -0.834588 -1.24879e-17
Li 0.363815 1.59107 1.06996e-19
3
 Atoms. Timestep: 150
Li -0.619085 -0.484362 -1.69156e-17
Li 2.19354 -0.44841 -1.65407e-17
Li 0.818251 1.95222 3.16196e-19
3
 Atoms. Timestep: 200
Li -0.0850952 -0.0334024 -1.80795e-17
Li 2.70272 -0.0379901 -1.81227e-17
Li 1.30476 2.38189 7.00846e-19
3
 Atoms. Timestep: 250
Li 0.422069 0.397387 -1.63406e-17
Li 3.21141 0.361766 -1.67246e-17
Li 1.78585 2.81476 1.28094e-18
3
 Atoms. Timestep: 300
Li 0.806219 0.718746 -1.2107e-17
Li 3.60703 0.726138 -1.22709e-17
Li 2.21297 3.14764 1.7342e-18
3
 Atoms. Timestep: 350
Li 1.03794 0.912619 -5.84682e-18
Li 3.83511 0.944271 -5.82295e-18
Li 2.46388 3.33547 2.00381e-18
3
 Atoms. Timestep: 400
Li 1.08177 0.954328 1.40703e-18
Li 3.8822 0.937799 1.37342e-18
Li 2.46769 3.3802 2.13231e-18
3
 Atoms. Timestep: 450
Li 0.916273 0.813202 8.40595e-18
Li 3.6998 0.781471 8.27716e-18
Li 2.28061 3.22613 1.91027e-18
3
 Atoms. Timestep: 500
Li 0.537865 0.490872 1.4051e-17
Li 3.33496 0.510317 1.37089e-17
Li 1.95328 2.91604 1.27928e-18
3
 Atoms. Timestep: 550
Li 0.0541739 0.0848753 1.72571e-17
Li 2.86705 0.112474 1.6999e-17
Li 1.48455 2.52112 2.18478e-19
3
 Atoms. Timestep: 600
Li -0.424389 -0.318559 1.74007e-17
Li 2.35881 -0.342199 1.76323e-17
Li 0.946823 2.09253 -1.04058e-18
3
 Atoms. Timestep: 650
Li -0.883145 -0.705646 1.48808e-17
Li 1.90635 -0.728772 1.52001e-17
Li 0.491658 1.71296 -2.37016e-18
3
 Atoms. Timestep: 700
Li -1.23243 -1.002 1.0079e-17
Li 1.57678 -0.975187 1.00952e-17
Li 0.195433 1.43277 -3.42842e-18
3
 Atoms. Timestep: 750
Li -1.36193 -1.11207 3.52586e-18
Li 1.43179 -1.09465 3.51359e-18
Li 0.0500333 1.30791 -4.03209e-18
3
 Atoms. Timestep: 800
Li -1.27927 -1.03821 -3.57614e-18
Li 1.51277 -1.07016 -3.44928e-18
Li 0.0891184 1.38066 -4.1124e-18
3
 Atoms. Timestep: 850
Li -1.02225 -0.823464 -1.00109e-17
Li 1.77039 -0.839267 -9.756e-18
Li 0.360382 1.59833 -3.50581e-18
3
 Atoms. Timestep: 900
Li -0.628147 -0.49377 -1.47383e-17
Li 2.16925 -0.462467 -1.43675e-17
Li 0.797592 1.9301 -2.2343e-18
3
 Atoms. Timestep: 950
Li -0.139686 -0.0776937 -1.68789e-17
Li 2.66799 -0.0701801 -1.6797e-17
Li 1.27059 2.35413 -3.1772e-19
3
 Atoms. Timestep: 1000
Li 0.364034 0.347492 -1.61302e-17
Li 3.14644 0.314266 -1.64331e-17
Li 1.72641 2.75817 1.73531e-18
3
 Atoms. Timestep: 1050
Li 0.740324 0.662842 -1.29799e-17
Li 3.53241 0.660195 -1.31339e-17
Li 2.134 3.08424 3.67128e-18
3
 Atoms. Timestep: 1100
Li 0.954218 0.84378 -7.78638e-18
Li 3.76717 0.877691 -7.70867e-18
Li 2.38997 3.28051 5.17036e-18
3
 Atoms. Timestep: 1150
Li 1.01783 0.897647 -1.22319e-18
Li 3.80752 0.894965 -1.28359e-18
Li 2.41031 3.31429 5.92523e-18
3
 Atoms. Timestep: 1200
Li 0.870832 0.775747 5.43786e-18
Li 3.6582 0.74258 5.21307e-18
Li 2.23581 3.1912 5.77751e-18
3
 Atoms. Timestep: 1250
Li 0.525588 0.482381 1.10816e-17
Li 3.32805 0.488406 1.07496e-17
Li 1.93206 2.91234 4.66545e-18
3
 Atoms. Timestep: 1300
Li 0.0834457 0.107183 1.47705e-17
Li 2.87999 0.136976 1.44695e-17
Li 1.50755 2.52935 2.69837e-18
3
 Atoms. Timestep: 1350
Li -0.378934 -0.278836 1.58907e-17
Li 2.41999 -0.293173 1.59624e-17
Li 1.00819 2.14557 2.47758e-20
3
 Atoms. Timestep: 1400
Li -0.796586 -0.632062 1.44245e-17
Li 1.99022 -0.661847 1.46672e-17
Li 0.571119 1.78336 -2.69838e-18
3
 Atoms. Timestep: 1450
Li -1.12382 -0.911527 1.07928e-17
Li 1.67088 -0.894984 1.07665e-17
Li 0.287913 1.51123 -5.06887e-18
3
 Atoms. Timestep: 1500
Li -1.27526 -1.03711 5.41329e-18
Li 1.53623 -1.01155 5.33093e-18
Li 0.15264 1.39774 -6.82933e-18
3
 Atoms. Timestep: 1550
Li -1.19878 -0.971919 -8.8574e-19
Li 1.58765 -0.992513 -7.34142e-19
Li 0.176642 1.44173 -7.53899e-18
3
 Atoms. Timestep: 1600
Li -0.968425 -0.777937 -6.8774e-18
Li 1.819 -0.799422 -6.59604e-18
Li 0.406694 1.63849 -7.02799e-18
3
 Atoms. Timestep: 1650
Li -0.623479 -0.487729 -1.15948e-17
Li 2.18571 -0.463857 -1.12676e-17
Li 0.801747 1.94678 -5.34322e-18
3
 Atoms. Timestep: 1700
Li -0.171707 -0.107275 -1.42409e-17
Li 2.62299 -0.0903932 -1.40707e-17
Li 1.2402 2.31328 -2.69588e-18
3
 Atoms. Timestep: 1750
Li 0.282844 0.279703 -1.44711e-17
Li 3.07351 0.251814 -1.46182e-17
Li 1.65399 2.69722 5.92573e-19
3
 Atoms. Timestep: 1800
Li 0.63878 0.578798 -1.24529e-17
Li 3.43361 0.564154 -1.25545e-17
Li 2.02346 3.00195 3.83063e-18
3
 Atoms. Timestep: 1850
Li 0.849499 0.753625 -8.48969e-18
Li 3.64576 0.781092 -8.35176e-18
Li 2.27134 3.1763 6.4778e-18
3
 Atoms. Timestep: 1900
Li 0.900058 0.799659 -3.1315e-18
Li 3.70554 0.806941 -3.12461e-18
Li 2.30905 3.22936 8.31047e-18
3
 Atoms. Timestep: 1950
Li 0.789588 0.706898 2.68249e-18
Li 3.57566 0.677474 2.45538e-18
Li 2.15713 3.12052 8.80766e-18
3
 Atoms. Timestep: 2000
Li 0.493851 0.454851 7.86973e-18
Li 3.28412 0.451551 7.58318e-18
Li 1.88612 2.8741 7.84473e-18
3
 Atoms. Timestep: 2050
Li 0.0831564 0.108852 1.16238e-17
Li 2.89451 0.138678 1.13654e-17
Li 1.51466 2.54399 5.56686e-18
3
 Atoms. Timestep: 2100
Li -0.325237 -0.235565 1.33102e-17
Li 2.4667 -0.237007 1.32669e-17
Li 1.06952 2.18264 2.30662e-18
3
 Atoms. Timestep: 2150
Li -0.704874 -0.554534 1.28134e-17
Li 2.0815 -0.583579 1.29449e-17
Li 0.663235 1.85976 -1.46294e-18
3
 Atoms. Timestep: 2200
Li -1.01068 -0.81389 1.03724e-17
Li 1.7922 -0.808901 1.03255e-17
Li 0.395143 1.6159 -5.05448e-18
3
 Atoms. Timestep: 2250
Li -1.15148 -0.934718 6.22567e-18
Li 1.64522 -0.908227 6.0804e-18
Li 0.269857 1.48742 -7.84885e-18
3
 Atoms. Timestep: 2300
Li -1.10704 -0.893752 1.07015e-18
Li 1.69008 -0.905658 1.17552e-18
Li 0.281266 1.52888 -9.57371e-18
3
 Atoms. Timestep: 2350
Li -0.902469 -0.721243 -4.11763e-18
Li 1.88728 -0.747522 -3.85034e-18
Li 0.469692 1.69637 -9.73586e-18
3
 Atoms. Timestep: 2400
Li -0.591704 -0.462204 -8.45676e-18
Li 2.20185 -0.448339 -8.20226e-18
Li 0.817076 1.95912 -8.2681e-18
3
 Atoms. Timestep: 2450
Li -0.207072 -0.135578 -1.12853e-17
Li 2.60199 -0.113046 -1.11171e-17
Li 1.21693 2.29702 -5.40985e-18
3
 Atoms. Timestep: 2500
Li 0.211706 0.218706 -1.21391e-17
Li 3.00108 0.201071 -1.21688e-17
Li 1.59108 2.63468 -1.61897e-18
3
 Atoms. Timestep: 2550
Li 0.545663 0.499749 -1.10644e-17
Li 3.33225 0.48066 -1.11117e-17
Li 1.92238 2.91504 2.51903e-18
3
 Atoms. Timestep: 2600
Li 0.734768 0.658854 -8.30036e-18
Li 3.54285 0.679641 -8.15323e-18
Li 2.15674 3.0921 6.32515e-18
3
 Atoms. Timestep: 2650
Li 0.798727 0.712133 -4.11057e-18
Li 3.59457 0.727543 -4.04093e-18
Li 2.20993 3.13344 9.14805e-18
3
 Atoms. Timestep: 2700
Li 0.706847 0.637151 6.96919e-19
Li 3.49657 0.613174 4.93969e-19
Li 2.08091 3.05365 1.06176e-17
3
 Atoms. Timestep: 2750
Li 0.451626 0.421057 5.1917e-18
Li 3.24788 0.408108 4.92738e-18
Li 1.83852 2.84493 1.03561e-17
3
 Atoms. Timestep: 2800
Li 0.0939302 0.116302 8.69851e-18
Li 2.88993 0.140244 8.49486e-18
Li 1.51265 2.53851 8.35649e-18
3
 Atoms. Timestep: 2850
Li -0.289949 -0.204875 1.06782e-17
Li 2.51324 -0.198254 1.05839e-17
Li 1.1174 2.22267 4.95083e-18
3
 Atoms. Timestep: 2900
Li -0.630733 -0.491705 1.08345e-17
Li 2.15819 -0.517649 1.0866e-17
Li 0.741314 1.9242 7.0535e-19
3
 Atoms. Timestep: 2950
Li -0.90643 -0.726887 9.29906e-18
Li 1.88315 -0.730273 9.23414e-18
Li 0.48548 1.69126 -3.7018e-18
3
 Atoms. Timestep: 3000
Li -1.06062 -0.856369 6.30476e-18
Li 1.74875 -0.830188 6.12986e-18
Li 0.366777 1.57689 -7.61095e-18
3
 Atoms. Timestep: 3050
Li -1.02619 -0.826891 2.2059e-18
Li 1.76756 -0.827787 2.24549e-18
Li 0.369961 1.59264 -1.03391e-17
3
 Atoms. Timestep: 3100
Li -0.846769 -0.674603 -2.13998e-18
Li 1.93917 -0.700144 -1.88997e-18
Li 0.524135 1.73911 -1.14447e-17
3
 Atoms. Timestep: 3150
Li -0.576168 -0.447009 -5.92429e-18
Li 2.22662 -0.442534 -5.70145e-18
Li 0.82912 1.9823 -1.06938e-17
3
 Atoms. Timestep: 3200
Li -0.222268 -0.150137 -8.64054e-18
Li 2.57493 -0.126384 -8.4905e-18
Li 1.19689 2.27234 -8.15634e-18
3
 Atoms. Timestep: 3250
Li 0.152472 0.168938 -9.86148e-18
Li 2.94805 0.158706 -9.805e-18
Li 1.54138 2.59012 -4.24872e-18
3
 Atoms. Timestep: 3300
Li 0.467626 0.435184 -9.44365e-18
Li 3.2594 0.411805 -9.41915e-18
Li 1.84324 2.85431 3.78205e-19
3
 Atoms. Timestep: 3350
Li 0.659355 0.593897 -7.54374e-18
Li 3.45258 0.60601 -7.38302e-18
Li 2.0664 3.01461 4.96179e-18
3
 Atoms. Timestep: 3400
Li 0.712847 0.640777 -4.42157e-18
Li 3.51971 0.660863 -4.28866e-18
Li 2.13361 3.0714 8.87082e-18
3
 Atoms. Timestep: 3450
Li 0.644207 0.583888 -5.45947e-19
Li 3.4357 0.568196 -6.81779e-19
Li 2.02632 3.00157 1.13808e-17
3
 Atoms. Timestep: 3500
Li 0.427627 0.400023 3.25409e-18
Li 3.21393 0.382803 3.0167e-18
Li 1.80583 2.81476 1.20431e-17
3
 Atoms. Timestep: 3550
Li 0.0931062 0.11742 6.3362e-18
Li 2.90004 0.13606 6.17585e-18
Li 1.51268 2.54944 1.076e-17
3
 Atoms. Timestep: 3600
Li -0.25422 -0.176229 8.31254e-18
Li 2.54267 -0.162145 8.20489e-18
Li 1.15642 2.24584 7.69713e-18
3
 Atoms. Timestep: 3650
Li -0.572791 -0.443137 8.86747e-18
Li 2.21617 -0.464493 8.81015e-18
Li 0.803228 1.97257 3.34341e-18
3
 Atoms. Timestep: 3700
Li -0.835012 -0.664748 7.9828e-18
Li 1.96207 -0.676341 7.87752e-18
Li 0.553534 1.75951 -1.58269e-18
3
 Atoms. Timestep: 3750
Li -0.979336 -0.789225 5.81326e-18
Li 1.81685 -0.767687 5.60927e-18
Li 0.437451 1.63298 -6.25374e-18
3
 Atoms. Timestep: 3800
Li -0.970666 -0.779558 2.68162e-18
Li 1.83062 -0.773554 2.63631e-18
Li 0.43523 1.64625 -1.00493e-17
3
 Atoms. Timestep: 3850
Li -0.810782 -0.643586 -8.44236e-19
Li 1.98011 -0.667102 -6.55231e-19
Li 0.564358 1.77392 -1.22308e-17
3
 Atoms. Timestep: 3900
Li -0.556512 -0.431493 -4.04639e-18
Li 2.2329 -0.434731 -3.86603e-18
Li 0.835427 1.9862 -1.23915e-17
3
 Atoms. Timestep: 3950
Li -0.246086 -0.168885 -6.44792e-18
Li 2.56157 -0.145205 -6.3458e-18
Li 1.17826 2.26281 -1.05609e-17
3
 Atoms. Timestep: 4000
Li 0.105973 0.128849 -7.74064e-18
Li 2.90115 0.128159 -7.65305e-18
Li 1.50296 2.5495 -7.00158e-18
3
 Atoms. Timestep: 4050
Li 0.409524 0.385472 -7.72277e-18
Li 3.19521 0.362407 -7.63477e-18
Li 1.78238 2.79884 -2.27008e-18
3
 Atoms. Timestep: 4100
Li 0.589754 0.537077 -6.46739e-18
Li 3.39225 0.541332 -6.29302e-18
Li 1.99465 2.96588 2.85937e-18
3
 Atoms. Timestep: 4150
Li 0.655151 0.590675 -4.13441e-18
Li 3.45299 0.612429 -3.9528e-18
Li 2.07285 3.01365 7.5271e-18
3
 Atoms. Timestep: 4200
Li 0.595164 0.542323 -1.12365e-18
Li 3.38948 0.533149 -1.17414e-18
Li 1.98433 2.96234 1.10871e-17
3
 Atoms. Timestep: 4250
Li 0.403095 0.380759 1.94613e-18
Li 3.19622 0.359511 1.75775e-18
Li 1.78122 2.80091 1.28509e-17
3
 Atoms. Timestep: 4300
Li 0.106654 0.127618 4.53073e-18
Li 2.89998 0.138584 4.42269e-18
Li 1.51278 2.54819 1.24739e-17
3
 Atoms. Timestep: 4350
Li -0.229427 -0.154552 6.2827e-18
Li 2.57557 -0.136342 6.21247e-18
Li 1.18882 2.2744 1.01069e-17
3
 Atoms. Timestep: 4400
Li -0.526945 -0.404422 6.95527e-18
Li 2.26612 -0.41885 6.86058e-18
Li 0.857099 2.01453 6.09678e-18
3
 Atoms. Timestep: 4450
Li -0.76757 -0.608764 6.45849e-18
Li 2.01873 -0.624553 6.3249e-18
Li 0.611928 1.80576 1.07041e-18
3
 Atoms. Timestep: 4500
Li -0.921686 -0.738998 4.92728e-18
Li 1.88412 -0.72193 4.72081e-18
Li 0.496025 1.69186 -4.15807e-18
3
 Atoms. Timestep: 4550
Li -0.919909 -0.737795 2.55012e-18
Li 1.87793 -0.724867 2.44004e-18
Li 0.490247 1.685 -8.72244e-18
3
 Atoms. Timestep: 4600
Li -0.778402 -0.616886 -2.08932e-19
Li 2.01 -0.636305 -9.17774e-20
Li 0.599038 1.79825 -1.19336e-17
3
 Atoms. Timestep: 4650
Li -0.55016 -0.424301 -2.75208e-18
Li 2.24738 -0.434721 -2.61015e-18
Li 0.839633 2.00012 -1.32116e-17
3
 Atoms. Timestep: 4700
Li -0.256172 -0.178628 -4.72532e-18
Li 2.54044 -0.158852 -4.6751e-18
Li 1.15929 2.24384 -1.22888e-17
3
 Atoms. Timestep: 4750
Li 0.0633259 0.0929682 -5.86739e-18
Li 2.863 0.0984301 -5.79435e-18
Li 1.46791 2.51734 -9.41659e-18
3
 Atoms. Timestep: 4800
Li 0.352154 0.337948 -5.99229e-18
Li 3.14447 0.31638 -5.86833e-18
Li 1.72964 2.75664 -5.01895e-18
3
 Atoms. Timestep: 4850
Li 0.539005 0.493182 -5.11285e-18
Li 3.3286 0.490215 -4.93637e-18
Li 1.93121 2.91081 2.06701e-19
3
 Atoms. Timestep: 4900
Li 0.596321 0.542077 -3.40743e-18
Li 3.40237 0.563729 -3.21327e-18
Li 2.01805 2.97232 5.42756e-18
3
 Atoms. Timestep: 4950
Li 0.550785 0.504432 -1.11235e-18
Li 3.34709 0.503756 -1.08711e-18
Li 1.9483 2.92598 9.77948e-18
3
 Atoms. Timestep: 5000
Li 0.386505 0.365883 1.28009e-18
Li 3.17217 0.344838 1.14795e-18
Li 1.76107 2.77915 1.2553e-17
3
 Atoms. Timestep: 5050
Li 0.107959 0.130459 3.26715e-18
Li 2.90997 0.134585 3.19482e-18
Li 1.51249 2.55864 1.32988e-17
3
 Atoms. Timestep: 5100
Li -0.199935 -0.130747 4.6522e-18
Li 2.59857 -0.110744 4.62641e-18
Li 1.21661 2.29276 1.18492e-17
3
 Atoms. Timestep: 5150
Li -0.483709 -0.368417 5.23242e-18
Li 2.30959 -0.376822 5.13e-18
Li 0.905647 2.05065 8.51773e-18
3
 Atoms. Timestep: 5200
Li -0.71485 -0.56277 4.89173e-18
Li 2.0792 -0.582164 4.73118e-18
Li 0.665391 1.85804 3.81218e-18
3
 Atoms. Timestep: 5250
Li -0.857147 -0.685614 3.73063e-18
Li 1.93656 -0.675548 3.53074e-18
Li 0.548442 1.73507 -1.51022e-18
3
 Atoms. Timestep: 5300
Li -0.875914 -0.700232 1.96091e-18
Li 1.92737 -0.683715 1.81385e-18
Li 0.540063 1.72719 -6.61594e-18
3
 Atoms. Timestep: 5350
Li -0.7521 -0.594354 -1.29027e-19
Li 2.04215 -0.607747 -9.15042e-20
Li 0.633474 1.82556 -1.0649e-17
3
 Atoms. Timestep: 5400
Li -0.534515 -0.412081 -2.07188e-18
Li 2.25209 -0.426528 -1.97578e-18
Li 0.846323 2.00254 -1.29233e-17
3
 Atoms. Timestep: 5450
Li -0.27333 -0.191776 -3.50702e-18
Li 2.53128 -0.176037 -3.49854e-18
Li 1.14264 2.23791 -1.31173e-17
3
 Atoms. Timestep: 5500
Li 0.0269465 0.0615717 -4.3377e-18
Li 2.82559 0.0733871 -4.30074e-18
Li 1.43652 2.485 -1.11764e-17
3
 Atoms. Timestep: 5550
Li 0.303463 0.296022 -4.41257e-18
Li 3.09156 0.278306 -4.27254e-18
Li 1.68219 2.71084 -7.44681e-18
3
 Atoms. Timestep: 5600
Li 0.481027 0.445984 -3.69778e-18
Li 3.27872 0.436719 -3.51122e-18
Li 1.87185 2.87036 -2.52535e-18
3
 Atoms. Timestep: 5650
Li 0.549478 0.501565 -2.36127e-18
Li 3.34663 0.519793 -2.16747e-18
Li 1.96382 2.92442 2.7902e-18
3
 Atoms. Timestep: 5700
Li 0.508257 0.468346 -6.40821e-19
Li 3.30654 0.473261 -5.54737e-19
Li 1.91162 2.89149 7.67356e-18
3
 Atoms. Timestep: 5750
Li 0.361444 0.34577 1.13646e-18
Li 3.1548 0.325991 1.07839e-18
Li 1.74096 2.76532 1.12984e-17
3
 Atoms. Timestep: 5800
Li 0.117547 0.137564 2.58666e-18
Li 2.90761 0.13494 2.55614e-18
Li 1.51026 2.55539 1.30363e-17
3
 Atoms. Timestep: 5850
Li -0.17909 -0.112391 3.4948e-18
Li 2.62539 -0.0926264 3.51999e-18
Li 1.24022 2.31644 1.26872e-17
3
 Atoms. Timestep: 5900
Li -0.446161 -0.336838 3.81259e-18
Li 2.351 -0.337637 3.74025e-18
Li 0.951698 2.08539 1.02991e-17
3
 Atoms. Timestep: 5950
Li -0.658465 -0.516159 3.44853e-18
Li 2.12747 -0.535374 3.28033e-18
Li 0.717851 1.89724 6.24799e-18
3
 Atoms. Timestep: 6000
Li -0.80514 -0.640191 2.45908e-18
Li 1.99623 -0.636185 2.26849e-18
Li 0.599015 1.78722 1.2095e-18
3
 Atoms. Timestep: 6050
Li -0.82776 -0.660362 1.05601e-18
Li 1.97136 -0.642072 8.9527e-19
Li 0.587656 1.76362 -3.99811e-18
3
 Atoms. Timestep: 6100
Li -0.721668 -0.569378 -5.05875e-19
Li 2.07087 -0.577143 -5.40537e-19
Li 0.667911 1.84896 -8.55921e-18
3
 Atoms. Timestep: 6150
Li -0.52704 -0.404287 -1.89079e-18
Li 2.26762 -0.421898 -1.85451e-18
Li 0.855083 2.01692 -1.171e-17
3
 Atoms. Timestep: 6200
Li -0.277998 -0.196608 -2.84145e-18
Li 2.51626 -0.187277 -2.87488e-18
Li 1.12725 2.22437 -1.28986e-17
3
 Atoms. Timestep: 6250
Li -0.0073522 0.0327763 -3.25779e-18
Li 2.79438 0.0477174 -3.2763e-18
Li 1.40649 2.45884 -1.20371e-17
3
 Atoms. Timestep: 6300
Li 0.251984 0.253128 -3.11148e-18
Li 3.0471 0.240702 -2.99688e-18
Li 1.63881 2.67376 -9.25407e-18
3
 Atoms. Timestep: 6350
Li 0.434367 0.405647 -2.38707e-18
Li 3.22154 0.39255 -2.20963e-18
Li 1.81663 2.82062 -4.96994e-18
3
 Atoms. Timestep: 6400
Li 0.496898 0.458268 -1.22732e-18
Li 3.30028 0.472788 -1.05445e-18
Li 1.91116 2.88678 8.48468e-20
3
 Atoms. Timestep: 6450
Li 0.466645 0.432856 1.35962e-19
Li 3.2659 0.443548 2.51324e-19
Li 1.87551 2.85679 5.08853e-18
3
 Atoms. Timestep: 6500
Li 0.341311 0.32782 1.44328e-18
Li 3.12937 0.311665 1.45314e-18
Li 1.72132 2.74256 9.24503e-18
3
 Atoms. Timestep: 6550
Li 0.114922 0.136926 2.39135e-18
Li 2.91255 0.128776 2.40315e-18
Li 1.50664 2.56109 1.18792e-17
3
 Atoms. Timestep: 6600
Li -0.154054 -0.0919908 2.86032e-18
Li 2.64366 -0.0752104 2.92945e-18
Li 1.25929 2.33127 1.25304e-17
3
 Atoms. Timestep: 6650
Li -0.409299 -0.306166 2.82487e-18
Li 2.38782 -0.301832 2.80428e-18
Li 0.992978 2.11594 1.11989e-17
3
 Atoms. Timestep: 6700
Li -0.613675 -0.477262 2.27231e-18
Li 2.18042 -0.49537 2.12534e-18
Li 0.767668 1.94287 8.08479e-18
3
 Atoms. Timestep: 6750
Li -0.746418 -0.591493 1.27881e-18
Li 2.0443 -0.593744 1.11138e-18
Li 0.646982 1.8267 3.66188e-18
3
 Atoms. Timestep: 6800
Li -0.784416 -0.623287 5.33131e-20
Li 2.01859 -0.60533 -8.95069e-20
Li 0.632639 1.80421 -1.31062e-18
3
 Atoms. Timestep: 6850
Li -0.695092 -0.546806 -1.17218e-18
Li 2.10267 -0.547804 -1.24883e-18
Li 0.702942 1.87589 -6.02331e-18
3
 Atoms. Timestep: 6900
Li -0.511055 -0.391792 -2.15047e-18
Li 2.27537 -0.409302 -2.16739e-18
Li 0.867025 2.02194 -9.71619e-18
3
 Atoms. Timestep: 6950
Li -0.288853 -0.204464 -2.65098e-18
Li 2.51178 -0.200547 -2.71397e-18
Li 1.11489 2.22214 -1.18128e-17
3
 Atoms. Timestep: 7000
Li -0.0353969 0.00862463 -2.66931e-18
Li 2.76423 0.0252889 -2.73516e-18
Li 1.37888 2.433 -1.19586e-17
3
 Atoms. Timestep: 7050
Li 0.209092 0.216076 -2.22552e-18
Li 3.00111 0.208883 -2.15438e-18
Li 1.59891 2.63393 -1.02073e-17
3
 Atoms. Timestep: 7100
Li 0.381429 0.36238 -1.33651e-18
Li 3.17645 0.346493 -1.17858e-18
Li 1.76521 2.78381 -6.83733e-18
3
 Atoms. Timestep: 7150
Li 0.454666 0.421937 -1.74164e-19
Li 3.24954 0.430664 -3.00488e-20
Li 1.85967 2.84331 -2.37092e-18
3
 Atoms. Timestep: 7200
Li 0.426973 0.399284 1.01773e-18
Li 3.22735 0.412765 1.13056e-18
Li 1.83883 2.82417 2.4266e-18
3
 Atoms. Timestep: 7250
Li 0.314134 0.305572 2.02123e-18
Li 3.10985 0.294048 2.07955e-18
Li 1.70199 2.7267 6.77515e-18
3
 Atoms. Timestep: 7300
Li 0.118721 0.139251 2.62295e-18
Li 2.90663 0.127457 2.67135e-18
Li 1.50244 2.55474 9.96809e-18
3
 Atoms. Timestep: 7350
Li -0.137356 -0.0770741 2.68986e-18
Li 2.66485 -0.0636766 2.78643e-18
Li 1.27531 2.35031 1.15287e-17
3
 Atoms. Timestep: 7400
Li -0.377303 -0.279278 2.2948e-18
Li 2.42237 -0.269699 2.32588e-18
Li 1.03079 2.145 1.12115e-17
3
 Atoms. Timestep: 7450
Li -0.566184 -0.438196 1.49106e-18
Li 2.22203 -0.452968 1.38075e-18
Li 0.815099 1.97664 9.10062e-18
3
 Atoms. Timestep: 7500
Li -0.699989 -0.550922 3.48822e-19
Li 2.09744 -0.558053 2.03931e-19
Li 0.692526 1.87291 5.55722e-18
3
 Atoms. Timestep: 7550
Li -0.73834 -0.584899 -8.8039e-19
Li 2.0599 -0.569484 -9.96852e-19
Li 0.674116 1.83873 1.14063e-18
3
 Atoms. Timestep: 7600
Li -0.665401 -0.522366 -1.94968e-18
Li 2.13079 -0.518625 -2.04214e-18
Li 0.735937 1.89891 -3.39948e-18
3
 Atoms. Timestep: 7650
Li -0.502847 -0.383768 -2.66521e-18
Li 2.29172 -0.400344 -2.72857e-18
Li 0.880105 2.03673 -7.32832e-18
3
 Atoms. Timestep: 7700
Li -0.289732 -0.205914 -2.87009e-18
Li 2.50174 -0.207773 -2.95793e-18
Li 1.10442 2.21275 -1.00051e-17
3
 Atoms. Timestep: 7750
Li -0.0617185 -0.0133332 -2.53135e-18
Li 2.73997 0.00297933 -2.63227e-18
Li 1.35329 2.41297 -1.10518e-17
3
 Atoms. Timestep: 7800
Li 0.165173 0.179341 -1.7638e-18
Li 2.96331 0.178138 -1.7475e-18
Li 1.56324 2.60234 -1.03187e-17
3
 Atoms. Timestep: 7850
Li 0.33938 0.325939 -6.57156e-19
Li 3.12643 0.310011 -5.33379e-19
Li 1.71915 2.74016 -7.92006e-18
3
 Atoms. Timestep: 7900
Li 0.408533 0.384079 6.44579e-19
Li 3.20842 0.387947 7.59527e-19
Li 1.81185 2.80989 -4.28834e-18
3
 Atoms. Timestep: 7950
Li 0.390322 0.368114 1.84463e-18
Li 3.19034 0.383285 1.93816e-18
Li 1.80347 2.79281 -9.21174e-21
3
 Atoms. Timestep: 8000
Li 0.293185 0.286959 2.71667e-18
Li 3.0849 0.280269 2.80237e-18
Li 1.68324 2.70453 4.20533e-18
3
 Atoms. Timestep: 8050
Li 0.112553 0.135341 3.09958e-18
Li 2.90774 0.121053 3.184e-18
Li 1.49776 2.55684 7.67721e-18
3
 Atoms. Timestep: 8100
Li -0.117104 -0.0604776 2.90989e-18
Li 2.6784 -0.0522568 3.02676e-18
Li 1.28774 2.36132 9.84036e-18
3
 Atoms. Timestep: 8150
Li -0.346595 -0.253649 2.20002e-18
Li 2.45263 -0.241504 2.27689e-18
Li 1.0635 2.17024 1.04096e-17
3
 Atoms. Timestep: 8200
Li -0.529753 -0.406692 1.10513e-18
Li 2.26633 -0.417421 1.04885e-18
Li 0.858962 2.01474 9.31307e-18
3
 Atoms. Timestep: 8250
Li -0.650008 -0.509516 -2.35319e-19
Li 2.13872 -0.520119 -3.45466e-19
Li 0.735145 1.90657 6.70676e-18
3
 Atoms. Timestep: 8300
Li -0.69882 -0.550963 -1.59935e-18
Li 2.1023 -0.538604 -1.68082e-18
Li 0.712419 1.87538 3.07212e-18
3
 Atoms. Timestep: 8350
Li -0.639909 -0.500771 -2.686e-18
Li 2.16002 -0.492266 -2.76773e-18
Li 0.767413 1.92371 -9.92554e-19
3
 Atoms. Timestep: 8400
Li -0.488054 -0.372297 -3.30297e-18
Li 2.30046 -0.385874 -3.39412e-18
Li 0.894451 2.04276 -4.82956e-18
3
 Atoms. Timestep: 8450
Li -0.29676 -0.210658 -3.33033e-18
Li 2.50038 -0.216879 -3.43939e-18
Li 1.09644 2.21279 -7.82442e-18
3
 Atoms. Timestep: 8500
Li -0.0819929 -0.0307363 -2.76402e-18
Li 2.7167 -0.0165507 -2.88722e-18
Li 1.32966 2.39321 -9.49355e-18
3
 Atoms. Timestep: 8550
Li 0.129944 0.148872 -1.72091e-18
Li 2.92541 0.152061 -1.75743e-18
Li 1.53047 2.56951 -9.63016e-18
3
 Atoms. Timestep: 8600
Li 0.293238 0.288056 -3.50655e-19
Li 3.08809 0.27288 -2.75463e-19
Li 1.67756 2.70877 -8.23093e-18
3
 Atoms. Timestep: 8650
Li 0.372399 0.353036 1.14241e-18
Li 3.16463 0.351591 1.22144e-18
Li 1.76729 2.77222 -5.50002e-18
3
 Atoms. Timestep: 8700
Li 0.356254 0.339418 2.47646e-18
Li 3.1568 0.354282 2.53431e-18
Li 1.76942 2.7647 -1.94546e-18
3
 Atoms. Timestep: 8750
Li 0.267745 0.265949 3.38057e-18
Li 3.06609 0.264562 3.46356e-18
Li 1.66572 2.68912 1.84201e-18
3
 Atoms. Timestep: 8800
Li 0.112389 0.134328 3.70213e-18
Li 2.90015 0.119836 3.80608e-18
Li 1.49371 2.54911 5.26557e-18
3
 Atoms. Timestep: 8850
Li -0.104493 -0.0489791 3.3702e-18
Li 2.69468 -0.0451351 3.496e-18
Li 1.29841 2.37609 7.77946e-18
3
 Atoms. Timestep: 8900
Li -0.319762 -0.231047 2.45499e-18
Li 2.48052 -0.217224 2.56072e-18
Li 1.09232 2.19387 8.98755e-18
3
 Atoms. Timestep: 8950
Li -0.491212 -0.375133 1.11977e-18
Li 2.30035 -0.381411 1.11705e-18
Li 0.899101 2.0423 8.7428e-18
3
 Atoms. Timestep: 9000
Li -0.611852 -0.47616 -4.63874e-19
Li 2.18337 -0.489027 -5.33115e-19
Li 0.774588 1.9453 7.10955e-18
3
 Atoms. Timestep: 9050
Li -0.658048 -0.516876 -2.02142e-18
Li 2.13805 -0.509106 -2.0666e-18
Li 0.746701 1.90532 4.3369e-18
3
 Atoms. Timestep: 9100
Li -0.612919 -0.478437 -3.24484e-18
Li 2.18536 -0.467513 -3.29635e-18
Li 0.795663 1.94463 9.38308e-19
3
 Atoms. Timestep: 9150
Li -0.480626 -0.36525 -3.91354e-18
Li 2.31565 -0.3753 -4.00782e-18
Li 0.908802 2.05634 -2.52418e-18
3
 Atoms. Timestep: 9200
Li -0.296145 -0.210795 -3.91579e-18
Li 2.49341 -0.220337 -4.03349e-18
Li 1.09038 2.20591 -5.51361e-18
3
 Atoms. Timestep: 9250
Li -0.101613 -0.0469239 -3.23562e-18
Li 2.69854 -0.0354916 -3.36382e-18
Li 1.30838 2.3785 -7.55774e-18
3
 Atoms. Timestep: 9300
Li 0.094725 0.119381 -2.00562e-18
Li 2.89479 0.126902 -2.07938e-18
Li 1.50129 2.54396 -8.3464e-18
3
 Atoms. Timestep: 9350
Li 0.257355 0.256803 -4.24389e-19
Li 3.04625 0.244272 -3.98413e-19
Li 1.64098 2.67216 -7.7793e-18
3
 Atoms. Timestep: 9400
Li 0.333317 0.321051 1.29975e-18
Li 3.13013 0.315654 1.34404e-18
Li 1.72708 2.7441 -5.98529e-18
3
 Atoms. Timestep: 9450
Li 0.326205 0.313947 2.83495e-18
Li 3.12527 0.327057 2.85685e-18
Li 1.73712 2.73817 -3.25118e-18
3
 Atoms. Timestep: 9500
Li 0.248878 0.24922 3.88251e-18
Li 3.04381 0.251922 3.94385e-18
Li 1.6487 2.66939 -7.22994e-20
3
 Atoms. Timestep: 9550
Li 0.104278 0.128476 4.27867e-18
Li 2.89927 0.114567 4.38755e-18
Li 1.48974 2.54929 3.03114e-18
3
 Atoms. Timestep: 9600
Li -0.0886986 -0.0360404 3.95215e-18
Li 2.70428 -0.037074 4.07822e-18
Li 1.30689 2.38368 5.58022e-18
3
 Atoms. Timestep: 9650
Li -0.294569 -0.209899 2.94532e-18
Li 2.505 -0.196296 3.06134e-18
Li 1.11698 2.21453 7.17914e-18
3
 Atoms. Timestep: 9700
Li -0.462146 -0.350065 1.43983e-18
Li 2.33627 -0.351624 1.4811e-18
Li 0.935686 2.07317 7.59571e-18
3
 Atoms. Timestep: 9750
Li -0.571345 -0.442755 -3.33922e-19
Li 2.21714 -0.45598 -3.60574e-19
Li 0.811416 1.97262 6.77305e-18
3
 Atoms. Timestep: 9800
Li -0.624272 -0.487726 -2.11805e-18
Li 2.17424 -0.483913 -2.13067e-18
Li 0.778258 1.93666 4.89286e-18
3
 Atoms. Timestep: 9850
Li -0.589573 -0.45863 -3.55307e-18
Li 2.21088 -0.446036 -3.56931e-18
Li 0.821534 1.96643 2.27104e-18
3
 Atoms. Timestep: 9900
Li -0.4676 -0.355227 -4.37615e-18
Li 2.32394 -0.361188 -4.45583e-18
Li 0.922992 2.06217 -6.38617e-19
3
 Atoms. Timestep: 9950
Li -0.301439 -0.21426 -4.47653e-18
Li 2.49373 -0.22589 -4.59584e-18
Li 1.08607 2.20708 -3.36156e-18
3
 Atoms. Timestep: 10000
Li -0.115985 -0.0592242 -3.82413e-18
Li 2.68065 -0.0518557 -3.94904e-18
Li 1.28872 2.36333 -5.47753e-18
3
 Atoms. Timestep: 10050
Li 0.066948 0.0953795 -2.52011e-18
Li 2.86447 0.10521 -2.61435e-18
Li 1.47424 2.51779 -6.66624e-18
3
 Atoms. Timestep: 10100
Li 0.218285 0.2246 -7.83751e-19
Li 3.01463 0.215145 -8.03928e-19
Li 1.60829 2.64623 -6.76373e-18
3
 Atoms. Timestep: 10150
Li 0.302882 0.294842 1.12017e-18
Li 3.09325 0.28626 1.12827e-18
Li 1.69067 2.71216 -5.75717e-18
3
 Atoms. Timestep: 10200
Li 0.298018 0.290352 2.88312e-18
Li 3.09734 0.300981 2.87088e-18
Li 1.70691 2.71498 -3.86462e-18
3
 Atoms. Timestep: 10250
Li 0.227025 0.231123 4.154e-18
Li 3.02711 0.237774 4.18129e-18
Li 1.63285 2.65572 -1.41744e-18
3
 Atoms. Timestep: 10300
Li 0.101905 0.125578 4.71951e-18
Li 2.89124 0.113976 4.81645e-18
Li 1.48654 2.54131 1.1867e-18
3
 Atoms. Timestep: 10350
Li -0.0797264 -0.0276473 4.51261e-18
Li 2.71675 -0.0322955 4.63324e-18
Li 1.31449 2.39502 3.51985e-18
3
 Atoms. Timestep: 10400
Li -0.272005 -0.190816 3.54793e-18
Li 2.52736 -0.17864 3.6619e-18
Li 1.13822 2.23363 5.22201e-18
3
 Atoms. Timestep: 10450
Li -0.430825 -0.324474 1.98276e-18
Li 2.36373 -0.322204 2.05366e-18
Li 0.968403 2.09538 6.04358e-18
3
 Atoms. Timestep: 10500
Li -0.541117 -0.41634 6.64248e-20
Li 2.2539 -0.429122 8.23876e-20
Li 0.8453 2.00448 5.88098e-18
3
 Atoms. Timestep: 10550
Li -0.589601 -0.458717 -1.89786e-18
Li 2.20408 -0.459373 -1.87887e-18
Li 0.806642 1.96151 4.76336e-18
3
 Atoms. Timestep: 10600
Li -0.565651 -0.438697 -3.56534e-18
Li 2.23311 -0.426218 -3.54454e-18
Li 0.844508 1.98502 2.92882e-18
3
 Atoms. Timestep: 10650
Li -0.460954 -0.349048 -4.6238e-18
Li 2.33743 -0.350785 -4.67182e-18
Li 0.936709 2.07416 7.0442e-19
3
 Atoms. Timestep: 10700
Li -0.30057 -0.214206 -4.91141e-18
Li 2.48864 -0.226332 -5.01738e-18
Li 1.08352 2.20175 -1.56954e-18
3
 Atoms. Timestep: 10750
Li -0.130828 -0.0712937 -4.39586e-18
Li 2.66709 -0.0675278 -4.50837e-18
Li 1.27139 2.35248 -3.51528e-18
3
 Atoms. Timestep: 10800
Li 0.0395099 0.072442 -3.14214e-18
Li 2.84005 0.0839209 -3.23928e-18
Li 1.44973 2.49755 -4.83326e-18
3
 Atoms. Timestep: 10850
Li 0.18838 0.198422 -1.35799e-18
Li 2.97999 0.192713 -1.41192e-18
Li 1.57926 2.61587 -5.33769e-18
3
 Atoms. Timestep: 10900
Li 0.26959 0.267604 6.80517e-19
Li 3.06464 0.257064 6.53671e-19
Li 1.65801 2.68879 -4.97868e-18
3
 Atoms. Timestep: 10950
Li 0.273709 0.269806 2.6326e-18
Li 3.07082 0.27683 2.59081e-18
Li 1.67837 2.69269 -3.82137e-18
3
 Atoms. Timestep: 11000
Li 0.211032 0.216995 4.14264e-18
Li 3.00795 0.225867 4.13141e-18
Li 1.6172 2.63888 -2.10742e-18
3
 Atoms. Timestep: 11050
Li 0.0930066 0.118811 4.9554e-18
Li 2.88932 0.109899 5.0243e-18
Li 1.48347 2.54042 -1.40493e-19
3
 Atoms. Timestep: 11100
Li -0.0678786 -0.0180371 4.95434e-18
Li 2.72327 -0.0257399 5.05851e-18
Li 1.32104 2.39988 1.78984e-18
3
 Atoms. Timestep: 11150
Li -0.251317 -0.17331 4.13834e-18
Li 2.54729 -0.163366 4.23696e-18
Li 1.1566 2.25064 3.36125e-18
3
 Atoms. Timestep: 11200
Li -0.40709 -0.304023 2.62758e-18
Li 2.39293 -0.298133 2.7082e-18
Li 0.998016 2.12053 4.33342e-18
3
 Atoms. Timestep: 11250
Li -0.508528 -0.389647 6.72527e-19
Li 2.28128 -0.400426 7.20672e-19
Li 0.877028 2.02649 4.57694e-18
3
 Atoms. Timestep: 11300
Li -0.561519 -0.434368 -1.42442e-18
Li 2.23462 -0.438352 -1.37874e-18
Li 0.833078 1.98793 4.0871e-18
3
 Atoms. Timestep: 11350
Li -0.544421 -0.420625 -3.29533e-18
Li 2.25518 -0.409285 -3.24436e-18
Li 0.865172 2.00399 2.95765e-18
3
 Atoms. Timestep: 11400
Li -0.449226 -0.340008 -4.60072e-18
Li 2.34507 -0.338142 -4.61116e-18
Li 0.949514 2.07963 1.41532e-18
3
 Atoms. Timestep: 11450
Li -0.305113 -0.217241 -5.14707e-18
Li 2.48986 -0.229042 -5.22861e-18
Li 1.08213 2.20352 -2.7062e-19
3
 Atoms. Timestep: 11500
Li -0.141289 -0.0802517 -4.85406e-18
Li 2.65303 -0.0805825 -4.94732e-18
Li 1.25557 2.34044 -1.8551e-18
3
 Atoms. Timestep: 11550
Li 0.0178583 0.0538001 -3.75547e-18
Li 2.81595 0.0652701 -3.83978e-18
Li 1.42683 2.47691 -3.07478e-18
3
 Atoms. Timestep: 11600
Li 0.155677 0.171398 -2.02744e-18
Li 2.95395 0.169486 -2.09742e-18
Li 1.55316 2.59451 -3.74689e-18
3
 Atoms. Timestep: 11650
Li 0.24356 0.245068 4.50178e-20
Li 3.03347 0.233908 -8.68886e-21
Li 1.62887 2.6616 -3.79028e-18
3
 Atoms. Timestep: 11700
Li 0.250166 0.250236 2.1341e-18
Li 3.04756 0.253956 2.07074e-18
Li 1.65211 2.67346 -3.23461e-18
3
 Atoms. Timestep: 11750
Li 0.192934 0.202032 3.86389e-18
Li 2.99349 0.212518 3.81986e-18
Li 1.60232 2.62714 -2.19358e-18
3
 Atoms. Timestep: 11800
Li 0.089616 0.115068 4.93213e-18
Li 2.88138 0.109581 4.96598e-18
Li 1.48077 2.53264 -8.61373e-19
3
 Atoms. Timestep: 11850
Li -0.0620925 -0.0124305 5.2007e-18
Li 2.73281 -0.0219894 5.28235e-18
Li 1.3271 2.40858 5.29873e-19
3
 Atoms. Timestep: 11900
Li -0.23228 -0.157151 4.6198e-18
Li 2.56524 -0.15041 4.69778e-18
Li 1.17233 2.26602 1.77682e-18
3
 Atoms. Timestep: 11950
Li -0.381045 -0.282717 3.26617e-18
Li 2.41541 -0.274676 3.34029e-18
Li 1.02415 2.13878 2.67621e-18
3
 Atoms. Timestep: 12000
Li -0.484563 -0.368728 1.36729e-18
Li 2.31165 -0.377138 1.43498e-18
Li 0.906254 2.05281 3.09995e-18
3
 Atoms. Timestep: 12050
Li 0.16637 0.152485 -1.38525e-18
Li 2.76229 0.160471 -1.42726e-18
Li 1.47125 2.40057 -2.01613e-18
3
 Atoms. Timestep: 12100
Li -0.118033 -0.0819942 1.09185e-18
Li 2.50875 -0.0904183 1.10448e-18
Li 1.18807 2.19291 6.23031e-19
3