LAMMPS (22 Jul 2025)
# TMD simulation using spring forces toward target
units metal
atom_style atomic
boundary f f f

# Read initial structure
read_data input.data
Reading data file ...
  orthogonal box = (-6 -6 -5) to (6 6 5)
  1 by 1 by 1 MPI processor grid
  reading atoms ...
  3 atoms
  read_data CPU = 0.000 seconds

# Li-Li interactions using Lennard-Jones potential
pair_style lj/cut 10.0
pair_coeff 1 1 0.05 2.5

# Define atom groups
group mobile id > 0
3 atoms in group mobile

# Energy minimization
minimize 1.0e-4 1.0e-6 1000 10000
Generated 0 of 0 mixed pair_coeff terms from geometric mixing rule
Neighbor list info ...
  update: every = 1 steps, delay = 0 steps, check = yes
  max neighbors/atom: 2000, page size: 100000
  master list distance cutoff = 12
  ghost atom cutoff = 12
  binsize = 6, bins = 2 2 2
  1 neighbor lists, perpetual/occasional/extra = 1 0 0
  (1) pair lj/cut, perpetual
      attributes: half, newton on
      pair build: half/bin/atomonly/newton
      stencil: half/bin/3d
      bin: standard
Per MPI rank memory allocation (min/avg/max) = 4.16 | 4.16 | 4.16 Mbytes
   Step          Temp          E_pair         E_mol          TotEng         Press     
         0   0              2.8920725      0              2.8920725      16307.341    
         6   0             -0.14999996     0             -0.14999996    -0.167651     
Loop time of 3.917e-06 on 1 procs for 6 steps with 3 atoms

102.1% CPU use with 1 MPI tasks x no OpenMP threads

Minimization stats:
  Stopping criterion = energy tolerance
  Energy initial, next-to-last, final = 
      2.89207249879837 -0.149999632723507 -0.149999961472559
  Force two-norm initial, final = 24.318826 0.00025645692
  Force max component initial, final = 16.535785 0.00020821246
  Final line search alpha, max atom move = 1 0.00020821246
  Iterations, force evaluations = 6 7

MPI task timing breakdown:
Section |  min time  |  avg time  |  max time  |%varavg| %total
---------------------------------------------------------------
Pair    | 7.91e-07   | 7.91e-07   | 7.91e-07   |   0.0 | 20.19
Neigh   | 0          | 0          | 0          |   0.0 |  0.00
Comm    | 3.33e-07   | 3.33e-07   | 3.33e-07   |   0.0 |  8.50
Output  | 0          | 0          | 0          |   0.0 |  0.00
Modify  | 0          | 0          | 0          |   0.0 |  0.00
Other   |            | 2.793e-06  |            |       | 71.30

Nlocal:              3 ave           3 max           3 min
Histogram: 1 0 0 0 0 0 0 0 0 0
Nghost:              0 ave           0 max           0 min
Histogram: 1 0 0 0 0 0 0 0 0 0
Neighs:              3 ave           3 max           3 min
Histogram: 1 0 0 0 0 0 0 0 0 0

Total # of neighbors = 3
Ave neighs/atom = 1
Neighbor list builds = 0
Dangerous builds = 0

# Initialize velocities with very low temperature for stability
velocity mobile create 10.0 4928459 rot yes dist gaussian

# TMD implementation using individual spring forces
# Read target coordinates and apply spring force for each atom
variable k_spring equal 1.0  # Much weaker spring for gradual transition

# Apply spring forces toward target positions for each atom
# We'll use individual fix spring commands for each atom
group atom1 id 1
1 atoms in group atom1
fix spring1 atom1 spring tether ${k_spring} 0.000000 0.000000 0.000000 0.0
fix spring1 atom1 spring tether 1 0.000000 0.000000 0.000000 0.0
group atom2 id 2
1 atoms in group atom2
fix spring2 atom2 spring tether ${k_spring} 2.500000 0.000000 0.000000 0.0
fix spring2 atom2 spring tether 1 2.500000 0.000000 0.000000 0.0
group atom3 id 3
1 atoms in group atom3
fix spring3 atom3 spring tether ${k_spring} 1.250000 2.165000 0.000000 0.0
fix spring3 atom3 spring tether 1 1.250000 2.165000 0.000000 0.0

# Multi-stage temperature control for gradual equilibration
# Stage 1: Gentle equilibration at low temperature
fix nvt_fix1 mobile nvt temp 10.0 10.0 10.0

# Output trajectory every 50 steps for longer simulation
dump traj_dump all xyz 50 trajectory.xyz
dump_modify traj_dump element Li

# Thermodynamics output more frequently to monitor
thermo_style custom step temp press etotal pe ke
thermo 100

# Stage 1: Short equilibration with weak springs
timestep 0.001
run 5000
Generated 0 of 0 mixed pair_coeff terms from geometric mixing rule
Per MPI rank memory allocation (min/avg/max) = 3.035 | 3.035 | 3.035 Mbytes
   Step          Temp          Press          TotEng         PotEng         KinEng    
         6   10             1.7499191     -0.14741476    -0.14999996     0.0025852029 
       100   1978.2635      409.96908      0.3626538     -0.14876745     0.51142124   
       200   9142.3731      1926.3621      2.221339      -0.14214993     2.3634889    
       300   11495.958      2595.8471      2.8481611     -0.12377726     2.9719384    
       400   6800.0041      1719.4816      1.6363427     -0.12159628     1.757939     
       500   1351.8372      488.22729      0.21042124    -0.13905611     0.34947735   
       600   232.05906      138.9541      -0.087478014   -0.14746999     0.059991977  
       700   3010.7149      646.89228      0.63013012    -0.14820076     0.77833088   
       800   5357.1477      1165.1826      1.2399351     -0.14499625     1.3849314    
       900   4344.5971      1107.5721      0.9880136     -0.13515292     1.1231665    
      1000   1465.9872      633.19283      0.25086273    -0.12812471     0.37898744   
      1100   18.101061      273.98369     -0.13094762    -0.13562711     0.0046794915 
      1200   961.31845      339.4973       0.10431419    -0.14420613     0.24852032   
      1300   2466.4508      580.93548      0.49086142    -0.14676615     0.63762757   
      1400   2554.0793      627.65468      0.51507426    -0.14520705     0.66028131   
      1500   1248.8853      464.58917      0.18354524    -0.13931694     0.32286219   
      1600   113.47886      319.17575     -0.10393149    -0.13326807     0.029336589  
      1700   220.50614      314.62638     -0.078455102   -0.13546041     0.05700531   
      1800   1060.2569      394.65648      0.1322816     -0.14181631     0.27409791   
      1900   1444.3823      416.9591       0.228262      -0.14514012     0.37340212   
      2000   953.26172      329.81606      0.10168485    -0.14475265     0.2464375    
      2100   218.60788      244.84184     -0.0845152     -0.14102977     0.056514571  
      2200   24.071046      267.06953     -0.1300998     -0.13632265     0.0062228539 
      2300   425.25709      345.02871     -0.026282744   -0.13622033     0.10993759   
      2400   810.02295      365.56164      0.068948536   -0.14045883     0.20940737   
      2500   697.58017      296.47814      0.036557632   -0.14378099     0.18033863   
      2600   259.99677      206.57943     -0.076972331   -0.14418677     0.06721444   
      2700   5.3713062      193.34237     -0.14042334    -0.14181194     0.0013885916 
      2800   150.51401      268.96958     -0.09925984    -0.13817077     0.038910926  
      2900   436.45779      336.8698      -0.024254583   -0.13708778     0.11283319   
      3000   491.45745      314.16638     -0.012684952   -0.13973667     0.12705172   
      3100   261.85744      229.1373      -0.075028969   -0.14272443     0.067695463  
      3200   29.833963      171.39791     -0.13591423    -0.14362692     0.0077126847 
      3300   39.570701      194.91577     -0.13194009    -0.14216992     0.010229829  
      3400   223.45457      268.04471     -0.081587888   -0.13935543     0.057767541  
      3500   330.24962      306.88017     -0.052505885   -0.13788211     0.085376229  
      3600   235.70809      269.7011      -0.078455872   -0.1393912      0.060935324  
      3700   60.68589       202.28233     -0.12622941    -0.14191795     0.015688534  
      3800   3.4207201      174.32145     -0.1422202     -0.14310453     0.00088432556
      3900   102.9951       205.15115     -0.11568086    -0.14230718     0.026626323  
      4000   212.91488      255.78517     -0.085101996   -0.14014481     0.055042817  
      4100   195.73968      272.62784     -0.087963927   -0.13856661     0.050602679  
      4200   79.962736      241.41649     -0.11860186    -0.13927385     0.02067199   
      4300   2.3805637      199.60258     -0.14069737    -0.14131279     0.00061542401
      4400   39.394813      188.26906     -0.13244389    -0.14262825     0.010184359  
      4500   128.22114      209.87278     -0.10916824    -0.14231601     0.033147766  
      4600   153.51841      237.27748     -0.10099418    -0.14068181     0.039687624  
      4700   87.268146      244.54574     -0.11658479    -0.13914538     0.022560586  
      4800   12.092013      228.16712     -0.13617       -0.13929603     0.0031260306 
      4900   10.75016       207.31768     -0.13808833    -0.14086746     0.0027791345 
      5000   71.059748      200.50606     -0.12383078    -0.14220116     0.018370387  
      5006   95.196791      202.17337     -0.11779538    -0.14240568     0.024610302  
Loop time of 0.00208079 on 1 procs for 5000 steps with 3 atoms

Performance: 207613.355 ns/day, 0.000 hours/ns, 2402932.346 timesteps/s, 7.209 Matom-step/s
94.3% CPU use with 1 MPI tasks x no OpenMP threads

MPI task timing breakdown:
Section |  min time  |  avg time  |  max time  |%varavg| %total
---------------------------------------------------------------
Pair    | 0.00028044 | 0.00028044 | 0.00028044 |   0.0 | 13.48
Neigh   | 6.666e-06  | 6.666e-06  | 6.666e-06  |   0.0 |  0.32
Comm    | 0.00019108 | 0.00019108 | 0.00019108 |   0.0 |  9.18
Output  | 0.0002772  | 0.0002772  | 0.0002772  |   0.0 | 13.32
Modify  | 0.0010026  | 0.0010026  | 0.0010026  |   0.0 | 48.18
Other   |            | 0.0003228  |            |       | 15.52

Nlocal:              3 ave           3 max           3 min
Histogram: 1 0 0 0 0 0 0 0 0 0
Nghost:              0 ave           0 max           0 min
Histogram: 1 0 0 0 0 0 0 0 0 0
Neighs:              3 ave           3 max           3 min
Histogram: 1 0 0 0 0 0 0 0 0 0

Total # of neighbors = 3
Ave neighs/atom = 1
Neighbor list builds = 20
Dangerous builds = 0

# Stage 2: Longer TMD with temperature reduction
unfix nvt_fix1
fix nvt_fix2 mobile nvt temp 10.0 1.0 20.0
run 15000
Generated 0 of 0 mixed pair_coeff terms from geometric mixing rule
Per MPI rank memory allocation (min/avg/max) = 4.036 | 4.036 | 4.036 Mbytes
   Step          Temp          Press          TotEng         PotEng         KinEng    
      5006   95.196791      202.17337     -0.11779538    -0.14240568     0.024610302  
      5100   119.47474      208.70774     -0.11139378    -0.14228042     0.030886645  
      5200   96.53855       221.35942     -0.11609506    -0.14105224     0.024957174  
      5300   29.268073      228.73787     -0.13194563    -0.13951202     0.0075663907 
      5400   0.73282018     226.9313      -0.13903383    -0.13922328     0.00018944888
      5500   46.108153      218.87289     -0.12859194    -0.14051183     0.011919893  
      5600   108.89572      210.61961     -0.11384802    -0.14199978     0.028151754  
      5700   112.33066      205.82278     -0.11334676    -0.14238651     0.029039756  
      5800   52.567007      208.27163     -0.12780315    -0.14139279     0.013589638  
      5900   2.3469634      219.99477     -0.13918169    -0.13978843     0.00060673765
      6000   23.394301      232.41841     -0.13308567    -0.13913357     0.0060479016 
      6100   90.082215      231.96014     -0.11687224    -0.14016032     0.02328808   
      6200   119.73865      216.33864     -0.11078574    -0.14174061     0.03095487   
      6300   76.108346      198.39243     -0.12274475    -0.14242031     0.019675552  
      6400   13.347681      196.53368     -0.13824661    -0.14169726     0.0034506463 
      6500   7.793413       216.79682     -0.13809826    -0.14011302     0.0020147554 
      6600   65.814224      240.51371     -0.12212253    -0.13913685     0.017014312  
      6700   116.49296      241.21559     -0.10972464    -0.13984043     0.030115793  
      6800   97.09736       216.23365     -0.1163336     -0.14143523     0.025101638  
      6900   31.388065      190.37901     -0.13426657    -0.14238102     0.0081144518 
      7000   0.55489737     190.5105      -0.14180853    -0.14195198     0.00014345223
      7100   41.636319      218.64041     -0.12970071    -0.14046455     0.010763833  
      7200   103.37006      246.50814     -0.11250855    -0.13923181     0.026723258  
      7300   110.46345      243.53717     -0.11101551    -0.13957255     0.028557044  
      7400   54.101282      212.59764     -0.12711242    -0.1410987      0.013986279  
      7500   3.0588107      186.51851     -0.14148006    -0.14227083     0.00079076462
      7600   20.152163      191.51594     -0.13693663    -0.14214638     0.005209743  
      7700   83.623074      221.91742     -0.11920332    -0.14082158     0.021618261  
      7800   114.66655      246.39312     -0.10976696    -0.13941059     0.02964363   
      7900   75.822001      239.45596     -0.1197725     -0.13937402     0.019601526  
      8000   14.933836      209.81884     -0.13688782    -0.14074852     0.0038606995 
      8100   5.8106197      189.53728     -0.14059297    -0.14209514     0.0015021631 
      8200   59.344698      197.21214     -0.126932      -0.14227381     0.015341809  
      8300   109.36253      222.21893     -0.11289133    -0.14116376     0.028272434  
      8400   93.813939      239.20427     -0.11540598    -0.13965878     0.024252807  
      8500   32.35171       232.62001     -0.13089395    -0.13925752     0.0083635735 
      8600   0.5297227      211.64559     -0.14026763    -0.14040458     0.00013694407
      8700   35.995875      198.59847     -0.13255659    -0.14186225     0.009305664  
      8800   94.620295      203.1569      -0.1178695     -0.14233077     0.024461266  
      8900   104.53896      217.04602     -0.11444836    -0.1414738      0.027025443  
      9000   53.227434      227.54379     -0.12619758    -0.13995795     0.013760372  
      9100   3.7745736      227.51211     -0.13825329    -0.13922909     0.00097580385
      9200   16.677772      218.9297      -0.13577544    -0.14008698     0.0043115423 
      9300   74.534266      209.85973     -0.12231526    -0.14158388     0.01926862   
      9400   105.76169      205.48109     -0.11497568    -0.14231723     0.027341544  
      9500   72.667633      207.28023     -0.12295145    -0.14173751     0.018786058  
      9600   15.61634       216.0203      -0.13624992    -0.14028706     0.0040371407 
      9700   3.9821335      226.80645     -0.13825869    -0.13928815     0.0010294623 
      9800   51.527867      229.16418     -0.12649389    -0.13981489     0.013320999  
      9900   98.674233      218.74439     -0.11576493    -0.14127422     0.025509291  
     10000   87.229518      203.08039     -0.11968552    -0.14223612     0.0225506    
     10100   32.07043       196.59535     -0.13365418    -0.14194504     0.0082908568 
     10200   0.42137827     208.62881     -0.14051617    -0.1406251      0.00010893483
     10300   29.744253      229.97596     -0.13173749    -0.13942699     0.007689493  
     10400   83.486417      238.01982     -0.11802129    -0.13960422     0.021582933  
     10500   95.190552      222.47801     -0.11634133    -0.14095002     0.024608689  
     10600   50.34046       198.03035     -0.12907925    -0.14209328     0.01301403   
     10700   4.4804388      189.26532     -0.1409317     -0.14208998     0.0011582843 
     10800   13.052005      206.6606      -0.13757841    -0.14095262     0.0033742082 
     10900   63.815864      233.86764     -0.123135      -0.13963269     0.016497696  
     11000   94.183959      241.84648     -0.11511779    -0.13946625     0.024348465  
     11100   67.135135      221.40675     -0.12327307    -0.14062886     0.017355795  
     11200   15.579294      194.12472     -0.13786973    -0.14189729     0.0040275636 
     11300   2.5643288      187.77176     -0.14150704    -0.14216997     0.00066293103
     11400   43.022788      208.33314     -0.13013088    -0.14125314     0.011122264  
     11500   85.81189       234.77671     -0.1177041     -0.13988822     0.022184115  
     11600   78.525156      239.60864     -0.11910616    -0.13940651     0.020300346  
     11700   30.733399      218.41175     -0.13238329    -0.14032849     0.0079452073 
     11800   0.3605353      194.53348     -0.14156569    -0.1416589      9.3205689e-05
     11900   23.717029      191.6153      -0.13605408    -0.14218541     0.0061313333 
     12000   71.295637      210.17978     -0.12308266    -0.14151402     0.018431369  
     12100   83.856772      230.65196     -0.11849646    -0.14017513     0.021678677  
     12200   46.271624      233.19159     -0.12746224    -0.13942439     0.011962154  
     12300   5.141519       216.96918     -0.13873563    -0.14006482     0.001329187  
     12400   9.7300483      200.03532     -0.13887542    -0.14139084     0.0025154149 
     12500   53.063188      197.89906     -0.12842183    -0.14213975     0.013717911  
     12600   81.657795      209.23143     -0.12061611    -0.1417263      0.021110197  
     12700   60.247124      222.16527     -0.12489988    -0.14047498     0.015575104  
     12800   15.164842      226.07146     -0.13559363    -0.13951405     0.0039204194 
     12900   1.6898609      219.09293     -0.13941425    -0.13985111     0.00043686332
     13000   34.957272      208.75688     -0.13206958    -0.14110675     0.0090371642 
     13100   72.914349      203.14803     -0.12318846    -0.1420383      0.018849839  
     13200   69.258666      204.64687     -0.12398001    -0.14188478     0.01790477   
     13300   28.664011      212.15556     -0.13336098    -0.14077121     0.0074102283 
     13400   0.45469145     221.298       -0.13954762    -0.13966517     0.00011754696
     13500   18.665398      224.34831     -0.13487136    -0.13969674     0.004825384  
     13600   59.814126      217.39118     -0.12535776    -0.14082093     0.015463165  
     13700   72.619872      205.20983     -0.1231146     -0.14188831     0.01877371   
     13800   41.937049      197.97726     -0.13114549    -0.14198707     0.010841578  
     13900   5.5543488      203.96693     -0.13961384    -0.14104975     0.0014359119 
     14000   7.0546218      219.96886     -0.13804118    -0.13986494     0.0018237629 
     14100   43.758713      230.31686     -0.12829454    -0.13960705     0.011312515  
     14200   70.098054      223.031       -0.12242531    -0.14054707     0.018121769  
     14300   53.421575      204.19083     -0.12788765    -0.14169821     0.013810561  
     14400   14.610702      192.09083     -0.13825617    -0.14203333     0.003777163  
     14500   1.1183238      199.71348     -0.14101037    -0.14129948     0.0002891094 
     14600   28.153913      220.95366     -0.13282066    -0.14009902     0.0072783578 
     14700   61.80107       234.0826      -0.12360642    -0.13958325     0.015976831  
     14800   60.888756      224.56971     -0.12455721    -0.14029819     0.015740979  
     14900   26.429805      202.07857     -0.1346449     -0.14147755     0.0068326409 
     15000   0.63563337     189.52795     -0.14186103    -0.14202536     0.00016432412
     15100   14.688227      199.39234     -0.13771484    -0.14151204     0.0037972046 
     15200   50.131508      221.81812     -0.12739312    -0.14035313     0.012960012  
     15300   63.035482      233.808       -0.12332683    -0.13962279     0.016295951  
     15400   38.076868      222.99718     -0.13024187    -0.14008551     0.0098436429 
     15500   5.7131283      201.41768     -0.13975974    -0.1412367      0.0014769596 
     15600   5.0192947      191.20034     -0.14066897    -0.14196656     0.0012975895 
     15700   36.288622      201.18556     -0.13230014    -0.14168149     0.0093813451 
     15800   60.39975       220.32519     -0.1249989     -0.14061346     0.015614561  
     15900   47.607504      229.59304     -0.12741247    -0.13971998     0.012307506  
     16000   14.127693      220.59337     -0.13626618    -0.13991847     0.0036522952 
     16100   0.65034926     203.85138     -0.14081859    -0.14098672     0.00016812848
     16200   22.699346      196.06852     -0.1359932     -0.14186144     0.0058682416 
     16300   52.81397       202.64516     -0.12815052    -0.141804       0.013653483  
     16400   53.847238      215.65913     -0.12694692    -0.14086753     0.013920604  
     16500   24.459203      223.25351     -0.13354319    -0.13986639     0.0063232003 
     16600   0.91120373     219.55424     -0.13956834    -0.1398039      0.00023556465
     16700   11.513379      209.27359     -0.13776276    -0.1407392      0.002976442  
     16800   42.190922      201.83973     -0.13080872    -0.14171593     0.010907209  
     16900   55.176376      202.06794     -0.12761325    -0.14187746     0.014264213  
     17000   34.760851      208.79518     -0.13211779    -0.14110418     0.0089863852 
     17100   5.7835769      217.25482     -0.13855655    -0.14005173     0.001495172  
     17200   3.54356        220.81662     -0.13882984    -0.13974592     0.00091608216
     17300   30.187948      215.97611     -0.13270158    -0.14050578     0.0078041971 
     17400   52.205952      206.24077     -0.12804085    -0.14153715     0.013496298  
     17500   42.692498      199.33425     -0.13086464    -0.14190152     0.011036877  
     17600   13.686052      201.88918     -0.13777586    -0.14131398     0.0035381222 
     17700   0.29221597     213.41199     -0.14018861    -0.14026416     7.5543757e-05
     17800   18.304564      223.65841     -0.13501332    -0.13974542     0.0047321012 
     17900   45.213519      221.61643     -0.12860924    -0.14029785     0.011688612  
     18000   47.587215      208.15568     -0.12903144    -0.1413337      0.012302261  
     18100   22.676012      195.83309     -0.13601508    -0.14187729     0.0058622091 
     18200   1.2637393      197.09703     -0.14116252    -0.14148922     0.00032670226
     18300   8.8847684      212.05523     -0.13819443    -0.14049133     0.0022968929 
     18400   35.387229      226.23023     -0.13065176    -0.13980008     0.0091483168 
     18500   48.170268      224.4537      -0.12767265    -0.14012565     0.012452992  
     18600   31.504079      208.05029     -0.13297104    -0.14111549     0.0081444435 
     18700   5.8162907      193.5719      -0.14030403    -0.14180766     0.0015036292 
     18800   2.5159531      195.47183     -0.14097358    -0.14162401     0.00065042492
     18900   24.831294      212.05525     -0.13430128    -0.14072067     0.0064193934 
     19000   44.681283      226.66016     -0.12835338    -0.1399044      0.011551018  
     19100   37.93593       224.16873     -0.13019058    -0.13999779     0.0098072077 
     19200   13.004436      207.50687     -0.13753163    -0.14089354     0.0033619105 
     19300   0.095147003    194.01383     -0.14167251    -0.14169711     2.4597431e-05
     19400   14.60358       196.53521     -0.13793899    -0.14171431     0.0037753218 
     19500   38.064811      211.64186     -0.13109979    -0.14094032     0.0098405261 
     19600   41.271019      224.10817     -0.12938071    -0.1400501      0.010669396  
     19700   20.647094      221.86653     -0.13458266    -0.13992035     0.0053376927 
     19800   1.5526808      208.18173     -0.14027829    -0.14067969     0.00040139949
     19900   6.6454076      197.28055     -0.139834      -0.14155198     0.0017179727 
     20000   29.05173       198.69935     -0.1342474     -0.14175786     0.0075104616 
     20006   36.433161      202.61746     -0.13215979    -0.1415785      0.0094187114 
Loop time of 0.00608379 on 1 procs for 15000 steps with 3 atoms

Performance: 213025.034 ns/day, 0.000 hours/ns, 2465567.528 timesteps/s, 7.397 Matom-step/s
95.4% CPU use with 1 MPI tasks x no OpenMP threads

MPI task timing breakdown:
Section |  min time  |  avg time  |  max time  |%varavg| %total
---------------------------------------------------------------
Pair    | 0.00077603 | 0.00077603 | 0.00077603 |   0.0 | 12.76
Neigh   | 0          | 0          | 0          |   0.0 |  0.00
Comm    | 0.0005736  | 0.0005736  | 0.0005736  |   0.0 |  9.43
Output  | 0.00072671 | 0.00072671 | 0.00072671 |   0.0 | 11.94
Modify  | 0.0030329  | 0.0030329  | 0.0030329  |   0.0 | 49.85
Other   |            | 0.0009746  |            |       | 16.02

Nlocal:              3 ave           3 max           3 min
Histogram: 1 0 0 0 0 0 0 0 0 0
Nghost:              0 ave           0 max           0 min
Histogram: 1 0 0 0 0 0 0 0 0 0
Neighs:              3 ave           3 max           3 min
Histogram: 1 0 0 0 0 0 0 0 0 0

Total # of neighbors = 3
Ave neighs/atom = 1
Neighbor list builds = 0
Dangerous builds = 0

# Stage 3: Final equilibration at very low temperature
unfix nvt_fix2
fix nvt_fix3 mobile nvt temp 1.0 1.0 20.0
run 10000
Generated 0 of 0 mixed pair_coeff terms from geometric mixing rule
Per MPI rank memory allocation (min/avg/max) = 4.036 | 4.036 | 4.036 Mbytes
   Step          Temp          Press          TotEng         PotEng         KinEng    
     20006   36.433161      202.61746     -0.13215979    -0.1415785      0.0094187114 
     20100   41.456843      209.58217     -0.13042302    -0.14114046     0.010717435  
     20200   28.349805      219.41598     -0.13289008    -0.14021907     0.0073289999 
     20300   5.8973002      219.56509     -0.13835546    -0.13988003     0.0015245717 
     20400   1.8063606      210.91446     -0.14001125    -0.14047823     0.00046698086
     20500   20.765547      202.14796     -0.1360268     -0.14139512     0.0053683151 
     20600   39.408964      200.33396     -0.13159498    -0.141783       0.010188017  
     20700   34.9901        205.82918     -0.132279      -0.14132465     0.0090456508 
     20800   12.794276      214.01373     -0.13709494    -0.14040252     0.0033075799 
     20900   0.035378528    218.44787     -0.13987045    -0.1398796      9.1460674e-06
     21000   12.354732      215.35292     -0.1371017     -0.14029565     0.003193949  
     21100   34.157582      207.20921     -0.13238242    -0.14121285     0.008830428  
     21200   38.506818      200.50428     -0.13180358    -0.14175837     0.0099547938 
     21300   20.35258       200.92343     -0.13621599    -0.14147754     0.0052615548 
     21400   1.8669008      209.23289     -0.14012211    -0.14060475     0.00048263174
     21500   5.3720115      218.74807     -0.13854638    -0.13993516     0.001388774  
     21600   26.33321       219.97282     -0.13334054    -0.14014821     0.0068076692 
     21700   38.646737      210.76505     -0.13102353    -0.14101449     0.0099909656 
     21800   27.112713      199.31716     -0.13467765    -0.14168683     0.0070091865 
     21900   6.1900689      196.65316     -0.13999006    -0.14159032     0.0016002584 
     22000   1.2823599      206.37556     -0.14047846    -0.14080998     0.00033151605
     22100   17.702421      219.74251     -0.13546361    -0.14004004     0.0045764351 
     22200   35.022302      222.97538     -0.13099216    -0.14004614     0.0090539758 
     22300   31.919565      212.17484     -0.13256246    -0.14081432     0.0082518552 
     22400   12.175494      198.00807     -0.13842724    -0.14157486     0.0031476121 
     22500   0.066571122    194.54116     -0.14164101    -0.14165822     1.7209986e-05
     22600   9.9348549      205.42357     -0.1384354     -0.14100376     0.0025683616 
     22700   28.859291      220.00474     -0.13272242    -0.14018314     0.0074607124 
     22800   33.514793      223.36042     -0.13133021    -0.13999447     0.0086642541 
     22900   18.413616      212.10538     -0.13586591    -0.1406262      0.0047602935 
     23000   1.9202383      198.01686     -0.14093554    -0.14143196     0.00049642055
     23100   3.9030545      194.96812     -0.14067172    -0.14168074     0.0010090188 
     23200   21.326224      205.29115     -0.13566126    -0.14117452     0.0055132617 
     23300   32.224451      218.43809     -0.13202016    -0.14035084     0.0083306745 
     23400   23.338501      221.43046     -0.13395923    -0.13999271     0.006033476  
     23500   5.8375854      211.8845      -0.13895255    -0.14046168     0.0015091343 
     23600   0.73564483     200.02565     -0.14107901    -0.14126919     0.00019017912
     23700   13.617014      197.10655     -0.13814089    -0.14166117     0.0035202745 
     23800   28.261986      204.70701     -0.13400846    -0.14131476     0.0073062967 
     23900   26.494265      214.96896     -0.13368017    -0.14052947     0.0068493052 
     24000   10.628743      218.43182     -0.13728782    -0.14003557     0.0027477457 
     24100   0.1729199      212.5612      -0.14028396    -0.14032867     4.4703303e-05
     24200   7.2722537      203.62084     -0.13921762    -0.14109765     0.0018800251 
     24300   22.528175      199.59358     -0.13578134    -0.14160533     0.0058239904 
     24400   27.146649      203.03693     -0.13440297    -0.14142093     0.0070179596 
     24500   15.524046      210.48998     -0.13669407    -0.14070735     0.0040132808 
     24600   1.8666632      215.71015     -0.13963241    -0.14011498     0.00048257031
     24700   2.6791899      214.32952     -0.1395385     -0.14023113     0.00069262494
     24800   16.303725      207.66695     -0.13671213    -0.14092697     0.0042148437 
     24900   25.561485      201.35688     -0.13491196    -0.14152012     0.0066081624 
     25000   19.273785      200.54058     -0.13650996    -0.14149262     0.0049826645 
     25100   5.2558472      206.25895     -0.13951694    -0.14087569     0.0013587431 
     25200   0.36994091     214.01419     -0.14012651    -0.14022215     9.563723e-05 
     25300   10.200621      216.57708     -0.13753297    -0.14017004     0.0026370675 
     25400   22.270537      210.99562     -0.13500751    -0.1407649      0.0057573856 
     25500   21.576309      202.08228     -0.1358343     -0.14141221     0.0055779137 
     25600   9.1893477      198.07657     -0.13915543    -0.14153106     0.0023756328 
     25700   0.28348872     203.24041     -0.14095516    -0.14102845     7.3287585e-05
     25800   5.2673333      213.27969     -0.13898722    -0.14034893     0.0013617125 
     25900   17.645788      218.34117     -0.13558273    -0.14014452     0.0045617943 
     26000   22.124579      212.94395     -0.13489777    -0.14061742     0.0057196526 
     26100   13.172104      202.18172     -0.13788237    -0.14128762     0.0034052562 
     26200   1.8474277      196.57121     -0.14106053    -0.14153813     0.00047759754
     26300   1.8776888      201.73914     -0.14067598    -0.14116141     0.00048542064
     26400   12.70607       212.86013     -0.1372034     -0.14048818     0.003284777  
     26500   20.806697      218.84033     -0.13477383    -0.14015279     0.0053789534 
     26600   16.357589      213.5449      -0.13626069    -0.14048946     0.0042287686 
     26700   4.7979685      202.43025     -0.13991151    -0.14115188     0.0012403722 
     26800   0.1747033      196.55771     -0.14147071    -0.14151587     4.5164347e-05
     26900   7.9276162      201.39691     -0.13922197    -0.14127142     0.0020494496 
     27000   18.168944      211.97289     -0.13593635    -0.14063339     0.0046970407 
     27100   18.236939      217.82969     -0.13547766    -0.14019228     0.0047146188 
     27200   8.2395051      213.3733      -0.13825511    -0.14038519     0.0021300792 
     27300   0.35137746     203.49813     -0.14091968    -0.14101052     9.0838204e-05
     27400   3.9469442      197.95959     -0.1404463     -0.14146666     0.0010203652 
     27500   14.414449      201.48117     -0.13762958    -0.14135601     0.0037264275 
     27600   18.739877      210.1407      -0.13593376    -0.1407784      0.0048446385 
     27700   11.596867      215.67154     -0.13726157    -0.1402596      0.0029980255 
     27800   1.8792831      213.17585     -0.13982221    -0.14030805     0.0004858328 
     27900   1.3329407      205.59507     -0.14052467    -0.14086926     0.00034459222
     28000   10.259819      200.17703     -0.13874108    -0.14139345     0.0026523713 
     28100   17.602859      201.30259     -0.13686275    -0.14141345     0.0045506962 
     28200   14.361178      207.43154     -0.13720464    -0.14091729     0.0037126558 
     28300   4.4820125      213.11082     -0.13919161    -0.14035031     0.0011586912 
     28400   0.077375263    213.46051     -0.14024041    -0.14026041     2.0003075e-05
     28500   6.3352871      208.37167     -0.13909626    -0.14073406     0.0016378003 
     28600   15.254883      202.41617     -0.13735629    -0.14129999     0.0039436967 
     28700   15.890981      200.56913     -0.13733471    -0.14144285     0.0041081409 
     28800   7.5684687      204.4077      -0.13908798    -0.14104459     0.0019566027 
     28900   0.39140084     210.88745     -0.14035785    -0.14045904     0.00010118506
     29000   3.0134985      214.25058     -0.13946426    -0.14024331     0.00077905052
     29100   12.035933      211.11438     -0.13749923    -0.14061076     0.0031115329 
     29200   16.185452      204.08447     -0.13700662    -0.14119088     0.0041842679 
     29300   10.425385      199.49955     -0.13874918    -0.14144435     0.0026951734 
     29400   1.9243032      201.81954     -0.14065797    -0.14115544     0.00049747143
     29500   0.91212284     209.38343     -0.14034391    -0.14057971     0.00023580226
     29600   8.3931448      215.11328     -0.13808643    -0.14025623     0.0021697982 
     29700   15.102691      213.11507     -0.13660038    -0.14050473     0.0039043521 
     29800   12.738371      205.04755     -0.13777831    -0.14107144     0.0032931275 
     29900   4.2345661      198.65822     -0.14032448    -0.1414192      0.0010947213 
     30000   0.046224842    200.22556     -0.14123402    -0.14124597     1.195006e-05 
     30006   1.0083208      203.3095      -0.14077236    -0.14103303     0.00026067139
Loop time of 0.00407175 on 1 procs for 10000 steps with 3 atoms

Performance: 212193.774 ns/day, 0.000 hours/ns, 2455946.460 timesteps/s, 7.368 Matom-step/s
95.5% CPU use with 1 MPI tasks x no OpenMP threads

MPI task timing breakdown:
Section |  min time  |  avg time  |  max time  |%varavg| %total
---------------------------------------------------------------
Pair    | 0.00051414 | 0.00051414 | 0.00051414 |   0.0 | 12.63
Neigh   | 0          | 0          | 0          |   0.0 |  0.00
Comm    | 0.00038394 | 0.00038394 | 0.00038394 |   0.0 |  9.43
Output  | 0.00048188 | 0.00048188 | 0.00048188 |   0.0 | 11.83
Modify  | 0.0020375  | 0.0020375  | 0.0020375  |   0.0 | 50.04
Other   |            | 0.0006543  |            |       | 16.07

Nlocal:              3 ave           3 max           3 min
Histogram: 1 0 0 0 0 0 0 0 0 0
Nghost:              0 ave           0 max           0 min
Histogram: 1 0 0 0 0 0 0 0 0 0
Neighs:              3 ave           3 max           3 min
Histogram: 1 0 0 0 0 0 0 0 0 0

Total # of neighbors = 3
Ave neighs/atom = 1
Neighbor list builds = 0
Dangerous builds = 0

# Cleanup springs
unfix spring1
unfix spring2
unfix spring3

# Final cleanup
unfix nvt_fix3
undump traj_dump
Total wall time: 0:00:00
