3
 Atoms. Timestep: 50
Li 0.0368977 0.0473367 -9.05287e-18
Li 2.64986 0.0204898 -8.92582e-18
Li 1.32006 2.31393 2.55281e-19
3
 Atoms. Timestep: 100
Li 0.983424 0.866054 2.36811e-18
Li 3.78775 0.915056 2.55299e-18
Li 2.42798 3.29498 1.18776e-18
3
 Atoms. Timestep: 150
Li -0.798784 -0.649877 7.68849e-18
Li 1.86134 -0.69122 7.28187e-18
Li 0.495678 1.65624 -1.29156e-18
3
 Atoms. Timestep: 200
Li -0.812807 -0.659488 -5.72591e-18
Li 1.92153 -0.611019 -6.08058e-18
Li 0.5962 1.70946 -1.56738e-18
3
 Atoms. Timestep: 250
Li 0.956762 0.842847 -4.40933e-18
Li 3.69191 0.792614 -3.97952e-18
Li 2.2808 3.21302 2.9976e-18
3
 Atoms. Timestep: 300
Li -0.0461487 -0.0212341 7.20653e-18
Li 2.61199 0.00995492 7.47e-18
Li 1.30997 2.28246 6.20821e-19
3
 Atoms. Timestep: 350
Li -1.12152 -0.906997 4.62812e-19
Li 1.65356 -0.941073 2.58245e-19
Li 0.236598 1.4968 -4.18925e-18
3
 Atoms. Timestep: 400
Li 0.434588 0.383898 -6.73445e-18
Li 3.08137 0.401804 -6.76767e-18
Li 1.77336 2.67848 1.42526e-18
3
 Atoms. Timestep: 450
Li 0.498158 0.455165 2.87999e-18
Li 3.25661 0.451639 2.89934e-18
Li 1.87432 2.84415 4.09614e-18
3
 Atoms. Timestep: 500
Li -0.922218 -0.753243 4.83342e-18
Li 1.7734 -0.751479 4.61493e-18
Li 0.427241 1.58371 -3.79583e-18
3
 Atoms. Timestep: 550
Li -0.226434 -0.165707 -4.88853e-18
Li 2.47662 -0.147853 -4.88266e-18
Li 1.14051 2.17531 -2.56664e-18
3
 Atoms. Timestep: 600
Li 0.720576 0.641873 -2.16547e-18
Li 3.46554 0.621752 -1.76659e-18
Li 2.07555 3.02122 5.55323e-18
3
 Atoms. Timestep: 650
Li -0.446068 -0.357501 5.36995e-18
Li 2.21363 -0.331808 5.37856e-18
Li 0.906084 1.94587 -7.8938e-20
3
 Atoms. Timestep: 700
Li -0.703551 -0.557092 -5.95377e-19
Li 2.05167 -0.591547 -9.56737e-19
Li 0.644313 1.83025 -5.95496e-18
3
 Atoms. Timestep: 750
Li 0.573214 0.503962 -4.50933e-18
Li 3.24484 0.533266 -4.49816e-18
Li 1.93428 2.81774 3.16708e-18
3
 Atoms. Timestep: 800
Li 0.0737055 0.0946528 2.75922e-18
Li 2.79748 0.0636223 2.90555e-18
Li 1.40871 2.45395 4.68259e-18
3
 Atoms. Timestep: 850
Li -0.84639 -0.68763 2.77209e-18
Li 1.87452 -0.65919 2.68825e-18
Li 0.538792 1.6693 -5.75536e-18
3
 Atoms. Timestep: 900
Li 0.159403 0.159688 -3.82363e-18
Li 2.83618 0.14136 -3.77622e-18
Li 1.48191 2.47795 -1.97094e-18
3
 Atoms. Timestep: 950
Li 0.415344 0.382658 -7.6088e-19
Li 3.17109 0.399411 -5.45364e-19
Li 1.80762 2.77051 6.93889e-18
3
 Atoms. Timestep: 1000
Li -0.611609 -0.494659 3.71618e-18
Li 2.04542 -0.501504 3.57931e-18
Li 0.711048 1.80642 -1.45919e-18
3
 Atoms. Timestep: 1050
Li -0.337722 -0.252269 -9.86609e-19
Li 2.41041 -0.254494 -1.28266e-18
Li 1.03449 2.12922 -6.28105e-18
3
 Atoms. Timestep: 1100
Li 0.528387 0.470123 -2.74373e-18
Li 3.21264 0.474589 -2.60131e-18
Li 1.87428 2.79461 4.65293e-18
3
 Atoms. Timestep: 1150
Li -0.246781 -0.179636 2.10808e-18
Li 2.46073 -0.195642 2.32917e-18
Li 1.0931 2.16642 3.96468e-18
3
 Atoms. Timestep: 1200
Li -0.619688 -0.49375 1.37071e-18
Li 2.11002 -0.477123 1.26784e-18
Li 0.759665 1.86987 -6.68847e-18
3
 Atoms. Timestep: 1250
Li 0.34047 0.31136 -2.45289e-18
Li 3.0087 0.29067 -2.50474e-18
Li 1.65665 2.62289 -6.50803e-19
3
 Atoms. Timestep: 1300
Li 0.101 0.1168 -6.53926e-20
Li 2.85365 0.140343 2.81874e-20
Li 1.49761 2.50057 6.9728e-18
3
 Atoms. Timestep: 1350
Li -0.599566 -0.482494 2.12769e-18
Li 2.06391 -0.503259 2.02462e-18
Li 0.714259 1.82449 -2.77483e-18
3
 Atoms. Timestep: 1400
Li -0.0504634 -0.0128006 -8.43001e-19
Li 2.68725 0.00717024 -9.74298e-19
Li 1.33574 2.35844 -5.46226e-18
3
 Atoms. Timestep: 1450
Li 0.358543 0.329891 -1.41678e-18
Li 3.05202 0.312377 -1.23184e-18
Li 1.69003 2.66263 5.43337e-18
3
 Atoms. Timestep: 1500
Li -0.425772 -0.333814 1.24699e-18
Li 2.27492 -0.32324 1.3869e-18
Li 0.933708 2.00578 2.64452e-18
3
 Atoms. Timestep: 1550
Li -0.35368 -0.267246 6.20832e-19
Li 2.37419 -0.276216 4.51399e-19
Li 1.00258 2.09495 -6.65087e-18
3
 Atoms. Timestep: 1600
Li 0.351778 0.319701 -1.21952e-18
Li 3.02626 0.321181 -1.29713e-18
Li 1.69027 2.63677 6.79499e-19
3
 Atoms. Timestep: 1650
Li -0.13902 -0.0857152 1.55938e-20
Li 2.59976 -0.0826113 1.14719e-19
Li 1.23297 2.28582 6.15468e-18
3
 Atoms. Timestep: 1700
Li -0.491819 -0.390801 9.42981e-19
Li 2.18822 -0.397137 9.15175e-19
Li 0.842776 1.931 -3.65567e-18
3
 Atoms. Timestep: 1750
Li 0.130633 0.138759 -3.53613e-19
Li 2.85176 0.150765 -4.02755e-19
Li 1.50164 2.495 -4.16175e-18
3
 Atoms. Timestep: 1800
Li 0.1441 0.150027 -6.18897e-19
Li 2.85026 0.136868 -4.89573e-19
Li 1.4857 2.49428 5.56947e-18
3
 Atoms. Timestep: 1850
Li -0.469198 -0.371536 4.08758e-19
Li 2.2243 -0.356379 4.4162e-19
Li 0.890665 1.96094 1.28735e-18
3
 Atoms. Timestep: 1900
Li -0.131155 -0.0791657 3.78166e-19
Li 2.59493 -0.095641 2.05731e-19
Li 1.21771 2.28198 -6.00398e-18
3
 Atoms. Timestep: 1950
Li 0.265705 0.247254 -3.17953e-19
Li 2.94823 0.261593 -3.36224e-19
Li 1.61935 2.57045 1.68151e-18
3
 Atoms. Timestep: 2000
Li -0.289889 -0.213636 -2.66038e-19
Li 2.4341 -0.227141 -1.31064e-19
Li 1.06034 2.14542 4.95034e-18
3
 Atoms. Timestep: 2050
Li -0.341193 -0.262824 2.46049e-19
Li 2.35552 -0.251918 2.31326e-19
Li 1.01667 2.07291 -4.01496e-18
3
 Atoms. Timestep: 2100
Li 0.207413 0.202922 2.62928e-19
Li 2.91143 0.196176 2.03771e-19
Li 1.55362 2.54446 -2.79067e-18
3
 Atoms. Timestep: 2150
Li -0.0567494 -0.0193576 -2.97469e-19
Li 2.66212 -0.0147863 -2.29244e-19
Li 1.30657 2.33582 5.19295e-18
3
 Atoms. Timestep: 2200
Li -0.415246 -0.325671 -2.90062e-19
Li 2.27038 -0.325468 -2.93166e-19
Li 0.927739 1.99989 1.59007e-19
3
 Atoms. Timestep: 2250
Li 0.0180124 0.0456272 4.72024e-19
Li 2.74528 0.0420655 3.53442e-19
Li 1.37863 2.40809 -5.0192e-18
3
 Atoms. Timestep: 2300
Li 0.137517 0.140534 2.36476e-19
Li 2.82453 0.146439 2.72327e-19
Li 1.48611 2.46727 2.26039e-18
3
 Atoms. Timestep: 2350
Li -0.360547 -0.274939 -6.82733e-19
Li 2.35475 -0.284465 -5.56276e-19
Li 0.988796 2.07706 3.6653e-18
3
 Atoms. Timestep: 2400
Li -0.183268 -0.127998 -2.50174e-20
Li 2.52313 -0.117767 -7.14253e-20
Li 1.17884 2.21556 -3.90908e-18
3
 Atoms. Timestep: 2450
Li 0.193357 0.190017 8.12719e-19
Li 2.88739 0.178433 7.2934e-19
Li 1.53037 2.52334 -1.59088e-18
3
 Atoms. Timestep: 2500
Li -0.204598 -0.143793 -3.36777e-19
Li 2.52026 -0.13189 -2.83692e-19
Li 1.16807 2.21595 4.465e-18
3
 Atoms. Timestep: 2550
Li -0.311712 -0.237855 -7.61838e-19
Li 2.37072 -0.248307 -7.43901e-19
Li 1.02045 2.08523 -6.20019e-19
3
 Atoms. Timestep: 2600
Li 0.095154 0.10959 7.5444e-19
Li 2.8215 0.118968 6.85287e-19
Li 1.46651 2.47083 -3.90583e-18
3
 Atoms. Timestep: 2650
Li 0.000822844 0.0267687 4.78308e-19
Li 2.69139 0.0194231 5.16415e-19
Li 1.33972 2.35675 2.42869e-18
3
 Atoms. Timestep: 2700
Li -0.361289 -0.277371 -1.0811e-18
Li 2.34943 -0.273148 -9.98432e-19
Li 0.997681 2.07056 2.4987e-18
3
 Atoms. Timestep: 2750
Li -0.0499096 -0.0138409 8.62277e-21
Li 2.66001 -0.0163018 -5.72779e-20
Li 1.30297 2.33277 -3.45965e-18
3
 Atoms. Timestep: 2800
Li 0.117005 0.124332 1.17657e-18
Li 2.80918 0.123131 1.10375e-18
Li 1.46208 2.45623 -6.95956e-19
3
 Atoms. Timestep: 2850
Li -0.284954 -0.211005 -5.85159e-19
Li 2.43815 -0.207636 -5.19771e-19
Li 1.07946 2.14701 3.56384e-18
3
 Atoms. Timestep: 2900
Li -0.197726 -0.141643 -9.63325e-19
Li 2.48897 -0.147071 -9.2673e-19
Li 1.14092 2.18547 -1.01823e-18
3
 Atoms. Timestep: 2950
Li 0.112858 0.123989 1.09144e-18
Li 2.83294 0.131589 1.03691e-18
Li 1.47953 2.47941 -2.83569e-18
3
 Atoms. Timestep: 3000
Li -0.122306 -0.0762923 4.57863e-19
Li 2.57497 -0.0845596 4.70124e-19
Li 1.21915 2.25986 2.25846e-18
3
 Atoms. Timestep: 3050
Li -0.306199 -0.231865 -1.37125e-18
Li 2.39912 -0.222884 -1.32381e-18
Li 1.0542 2.11092 1.56769e-18
3
 Atoms. Timestep: 3100
Li 0.0353531 0.0589175 2.23322e-19
Li 2.74762 0.0499016 1.70232e-19
Li 1.38372 2.40787 -2.80968e-18
3
 Atoms. Timestep: 3150
Li 0.0152019 0.0378506 1.31863e-18
Li 2.70832 0.0456031 1.27742e-18
Li 1.3685 2.37021 -1.45217e-19
3
 Atoms. Timestep: 3200
Li -0.305002 -0.227736 -8.95136e-19
Li 2.41312 -0.234575 -8.26395e-19
Li 1.04809 2.12615 2.65055e-18
3
 Atoms. Timestep: 3250
Li -0.0957979 -0.0554752 -9.15603e-19
Li 2.59856 -0.050489 -8.88271e-19
Li 1.2557 2.27811 -1.07575e-18
3
 Atoms. Timestep: 3300
Li 0.0838315 0.0991834 1.3674e-18
Li 2.79473 0.0964028 1.308e-18
Li 1.43692 2.44668 -1.9344e-18
3
 Atoms. Timestep: 3350
Li -0.213006 -0.152527 2.47408e-19
Li 2.49307 -0.151455 2.45188e-19
Li 1.14094 2.19131 1.85371e-18
3
 Atoms. Timestep: 3400
Li -0.218579 -0.158116 -1.50465e-18
Li 2.47985 -0.156589 -1.46503e-18
Li 1.13192 2.17856 9.26112e-19
3
 Atoms. Timestep: 3450
Li 0.0659524 0.084627 5.13761e-19
Li 2.78182 0.0813725 4.84601e-19
Li 1.4211 2.43693 -2.09465e-18
3
 Atoms. Timestep: 3500
Li -0.0817481 -0.0436142 1.26084e-18
Li 2.6114 -0.0388437 1.23931e-18
Li 1.26897 2.2885 8.78981e-20
3
 Atoms. Timestep: 3550
Li -0.281108 -0.208184 -1.15817e-18
Li 2.4335 -0.214494 -1.10498e-18
Li 1.07069 2.14297 1.84874e-18
3
 Atoms. Timestep: 3600
Li -0.0178885 0.011018 -6.91106e-19
Li 2.68231 0.0177515 -6.82911e-19
Li 1.33804 2.34931 -8.81985e-19
3
 Atoms. Timestep: 3650
Li 0.0214974 0.0459264 1.50643e-18
Li 2.72529 0.0387447 1.44826e-18
Li 1.36721 2.38754 -1.2743e-18
3
 Atoms. Timestep: 3700
Li -0.258206 -0.190251 -5.92096e-20
Li 2.4542 -0.183298 -5.58045e-20
Li 1.104 2.15875 1.33368e-18
3
 Atoms. Timestep: 3750
Li -0.126675 -0.0806035 -1.46555e-18
Li 2.56676 -0.0865518 -1.42074e-18
Li 1.21487 2.25194 5.74542e-19
3
 Atoms. Timestep: 3800
Li 0.0520182 0.0724997 7.91863e-19
Li 2.77027 0.077531 7.7401e-19
Li 1.41553 2.42668 -1.42698e-18
3
 Atoms. Timestep: 3850
Li -0.157464 -0.106795 1.05154e-18
Li 2.53573 -0.110316 1.02885e-18
Li 1.18609 2.22543 6.98962e-20
3
 Atoms. Timestep: 3900
Li -0.228487 -0.16475 -1.31186e-18
Li 2.48418 -0.163034 -1.27756e-18
Li 1.1293 2.18471 1.2331e-18
3
 Atoms. Timestep: 3950
Li 0.0274078 0.0502933 -3.80282e-19
Li 2.73056 0.0499812 -3.7848e-19
Li 1.37872 2.39109 -5.4498e-19
3
 Atoms. Timestep: 4000
Li -0.0557729 -0.0202301 1.48456e-18
Li 2.64504 -0.0219848 1.43945e-18
Li 1.29314 2.31897 -8.73442e-19
3
 Atoms. Timestep: 4050
Li -0.257482 -0.188994 -3.65473e-19
Li 2.45664 -0.185988 -3.53316e-19
Li 1.10217 2.1613 8.11389e-19
3
 Atoms. Timestep: 4100
Li -0.0528761 -0.0185866 -1.27416e-18
Li 2.64026 -0.0228489 -1.23057e-18
Li 1.28998 2.31393 4.71539e-19
3
 Atoms. Timestep: 4150
Li 0.0104342 0.0372695 9.88122e-19
Li 2.72717 0.0425525 9.68067e-19
Li 1.3734 2.38987 -8.88956e-19
3
 Atoms. Timestep: 4200
Li -0.20585 -0.147162 7.50174e-19
Li 2.49007 -0.152779 7.20543e-19
Li 1.13726 2.18766 -1.13073e-19
3
 Atoms. Timestep: 4250
Li -0.160459 -0.108019 -1.33147e-18
Li 2.54912 -0.102217 -1.30528e-18
Li 1.19933 2.2385 8.32439e-19
3
 Atoms. Timestep: 4300
Li 0.0354101 0.0577769 -6.36158e-20
Li 2.74103 0.0522706 -5.4802e-20
Li 1.38345 2.4009 -1.67442e-19
3
 Atoms. Timestep: 4350
Li -0.126744 -0.0807868 1.3217e-18
Li 2.57297 -0.076189 1.28992e-18
Li 1.22712 2.25728 -7.03692e-19
3
 Atoms. Timestep: 4400
Li -0.223078 -0.159519 -5.97016e-19
Li 2.48999 -0.163321 -5.86416e-19
Li 1.13015 2.18997 3.73781e-19
3
 Atoms. Timestep: 4450
Li -0.00703812 0.0199123 -9.82487e-19
Li 2.68908 0.0223568 -9.48701e-19
Li 1.34312 2.35497 5.45779e-19
3
 Atoms. Timestep: 4500
Li -0.0441332 -0.00882611 1.06035e-18
Li 2.66801 -0.00986865 1.03776e-18
Li 1.31106 2.33978 -5.25378e-19
3
 Atoms. Timestep: 4550
Li -0.224487 -0.162693 4.22553e-19
Li 2.47677 -0.162928 3.93831e-19
Li 1.12595 2.17685 -3.70675e-19
3
 Atoms. Timestep: 4600
Li -0.091924 -0.050432 -1.22077e-18
Li 2.61269 -0.0486414 -1.19377e-18
Li 1.26191 2.29165 6.37412e-19
3
 Atoms. Timestep: 4650
Li 0.0100464 0.0365491 1.98345e-19
Li 2.71928 0.0337287 2.13983e-19
Li 1.36222 2.38299 1.68311e-19
3
 Atoms. Timestep: 4700
Li -0.1756 -0.122087 1.06307e-18
Li 2.52255 -0.118315 1.03596e-18
Li 1.17676 2.21442 -7.07806e-19
3
 Atoms. Timestep: 4750
Li -0.172163 -0.116666 -7.14766e-19
Li 2.54006 -0.12119 -7.12635e-19
Li 1.18002 2.2323 7.18281e-20
3
 Atoms. Timestep: 4800
Li 0.0106315 0.0350931 -6.57599e-19
Li 2.7097 0.0398049 -6.32289e-19
Li 1.36423 2.37247 7.13676e-19
3
 Atoms. Timestep: 4850
Li -0.100697 -0.0568932 1.0016e-18
Li 2.60695 -0.0616692 9.83515e-19
Li 1.24901 2.288 -3.42155e-19
3
 Atoms. Timestep: 4900
Li -0.213551 -0.153155 1.32544e-19
Li 2.49267 -0.148759 1.10911e-19
Li 1.14338 2.1905 -6.21129e-19
3
 Atoms. Timestep: 4950
Li -0.038391 -0.0054182 -1.00732e-18
Li 2.66158 -0.00904487 -9.8025e-19
Li 1.30843 2.33276 6.08952e-19
3
 Atoms. Timestep: 5000
Li -0.0356746 -0.00208406 3.65515e-19
Li 2.67685 0.000777498 3.80035e-19
Li 1.32306 2.34712 4.07005e-19
3
 Atoms. Timestep: 5050
Li -0.198928 -0.141513 7.67999e-19
Li 2.49752 -0.143263 7.39305e-19
Li 1.1478 2.19353 -8.28383e-19
3
 Atoms. Timestep: 5100
Li -0.119052 -0.072312 -7.30727e-19
Li 2.59316 -0.0717648 -7.33855e-19
Li 1.23752 2.27669 -8.12654e-20
3
 Atoms. Timestep: 5150
Li 0.00815279 0.0336047 -3.73419e-19
Li 2.70874 0.0341533 -3.48518e-19
Li 1.3589 2.37221 9.3784e-19
3
 Atoms. Timestep: 5200
Li -0.15211 -0.100925 8.82213e-19
Li 2.55306 -0.102826 8.70692e-19
Li 1.19884 2.24197 -3.32181e-19
3
 Atoms. Timestep: 5250
Li -0.184893 -0.128398 -7.81894e-20
Li 2.52408 -0.125629 -9.63685e-20
Li 1.172 2.21747 -8.63644e-19
3
 Atoms. Timestep: 5300
Li -0.00153225 0.0252951 -7.98506e-19
Li 2.69593 0.0216332 -7.73762e-19
Li 1.34401 2.36149 7.5269e-19
3
 Atoms. Timestep: 5350
Li -0.0843613 -0.0430204 4.62139e-19
Li 2.62977 -0.0387314 4.72786e-19
Li 1.27642 2.30738 5.77438e-19
3
 Atoms. Timestep: 5400
Li -0.206698 -0.147944 5.25482e-19
Li 2.48932 -0.152416 4.93775e-19
Li 1.13746 2.18691 -1.07519e-18
3
 Atoms. Timestep: 5450
Li -0.0673455 -0.0290551 -6.8437e-19
Li 2.64419 -0.0245707 -6.865e-19
Li 1.2923 2.31918 -1.08725e-19
3
 Atoms. Timestep: 5500
Li -0.0128848 0.0164209 -1.57368e-19
Li 2.68918 0.0123122 -1.27237e-19
Li 1.33457 2.35644 1.19685e-18
3
 Atoms. Timestep: 5550
Li -0.192781 -0.135902 7.06541e-19
Li 2.51079 -0.13257 6.98081e-19
Li 1.16191 2.20553 -4.53478e-19
3
 Atoms. Timestep: 5600
Li -0.139068 -0.0891199 -1.95503e-19
Li 2.57092 -0.0917205 -2.16789e-19
Li 1.21368 2.25767 -1.0501e-18
3
 Atoms. Timestep: 5650
Li 0.0110092 0.0354237 -5.51962e-19
Li 2.70849 0.0368042 -5.31711e-19
Li 1.36093 2.37166 9.79235e-19
3
 Atoms. Timestep: 5700
Li -0.135252 -0.0857323 4.4034e-19
Li 2.5775 -0.0859502 4.49607e-19
Li 1.22094 2.26341 6.32261e-19
3
 Atoms. Timestep: 5750
Li -0.192408 -0.135892 2.91412e-19
Li 2.50624 -0.136821 2.61543e-19
Li 1.15613 2.20136 -1.32949e-18
3
 Atoms. Timestep: 5800
Li -0.0218123 0.0091924 -5.28307e-19
Li 2.68644 0.0113887 -5.26291e-19
Li 1.33421 2.35443 -1.74792e-20
3
 Atoms. Timestep: 5850
Li -0.0565347 -0.0201297 -1.50987e-20
Li 2.64889 -0.0231656 1.8013e-20
Li 1.29353 2.32299 1.39361e-18
3
 Atoms. Timestep: 5900
Li -0.210747 -0.151383 4.6577e-19
Li 2.49029 -0.147532 4.54387e-19
Li 1.14312 2.18765 -6.56828e-19
3
 Atoms. Timestep: 5950
Li -0.0863814 -0.0444163 -1.97694e-19
Li 2.62465 -0.0488164 -2.25045e-19
Li 1.26534 2.30348 -1.12534e-18
3
 Atoms. Timestep: 6000
Li -0.00171028 0.0245799 -3.05535e-19
Li 2.69655 0.0290477 -2.86069e-19
Li 1.35127 2.36128 1.22426e-18
3
 Atoms. Timestep: 6050
Li -0.178762 -0.122482 3.01185e-19
Li 2.53136 -0.126885 3.1513e-19
Li 1.17248 2.22453 5.64655e-19
3
 Atoms. Timestep: 6100
Li -0.157723 -0.10647 1.2182e-19
Li 2.54495 -0.102562 9.54118e-20
Li 1.19702 2.23414 -1.53281e-18
3
 Atoms. Timestep: 6150
Li 0.00600864 0.0324991 -2.93391e-19
Li 2.70956 0.0293998 -2.91366e-19
Li 1.35509 2.37374 1.65886e-19
3
 Atoms. Timestep: 6200
Li -0.112239 -0.0670184 1.96829e-20
Li 2.59765 -0.0647369 5.03232e-20
Li 1.24466 2.27994 1.48694e-18
3
 Atoms. Timestep: 6250
Li -0.201491 -0.143576 2.12066e-19
Li 2.49616 -0.144611 1.96692e-19
Li 1.14645 2.19249 -8.91092e-19
3
 Atoms. Timestep: 6300
Li -0.040135 -0.00556514 -8.42793e-20
Li 2.67263 -0.00571333 -1.13304e-19
Li 1.31613 2.34392 -1.07899e-18
3
 Atoms. Timestep: 6350
Li -0.0350213 -0.0031824 -1.16087e-19
Li 2.66343 -0.00191992 -9.24357e-20
Li 1.31528 2.33357 1.42906e-18
3
 Atoms. Timestep: 6400
Li -0.206916 -0.146721 7.61375e-20
Li 2.50135 -0.149221 9.54147e-20
Li 1.14505 2.19887 3.97685e-19
3
 Atoms. Timestep: 6450
Li -0.108395 -0.0643156 5.8595e-20
Li 2.59728 -0.0610652 3.14549e-20
Li 1.24728 2.2787 -1.63879e-18
3
 Atoms. Timestep: 6500
Li 0.00717597 0.0330446 -3.13624e-20
Li 2.7073 0.0290142 -3.44262e-20
Li 1.35374 2.37152 3.93147e-19
3
 Atoms. Timestep: 6550
Li -0.164456 -0.110823 -6.42517e-20
Li 2.54837 -0.106371 -3.68414e-20
Li 1.19579 2.23847 1.45888e-18
3
 Atoms. Timestep: 6600
Li -0.169678 -0.116743 3.47824e-22
Li 2.52598 -0.121183 -1.39587e-20
Li 1.17432 2.21778 -1.09895e-18
3
 Atoms. Timestep: 6650
Li -0.00894872 0.0205039 1.20165e-19
Li 2.70449 0.0247702 9.51217e-20
Li 1.35148 2.37041 -9.27961e-19
3
 Atoms. Timestep: 6700
Li -0.0826857 -0.0429212 -2.46638e-20
Li 2.61636 -0.0466221 2.41698e-21
Li 1.26361 2.29446 1.54587e-18
3
 Atoms. Timestep: 6750
Li -0.212269 -0.151879 -1.82692e-19
Li 2.49462 -0.149063 -1.64183e-19
Li 1.14361 2.19245 1.77297e-19
3
 Atoms. Timestep: 6800
Li -0.0563174 -0.0196887 1.1646e-19
Li 2.65093 -0.0216638 8.46192e-20
Li 1.29562 2.3247 -1.6248e-18
3
 Atoms. Timestep: 6850
Li -0.0188385 0.0104981 1.96929e-19
Li 2.68015 0.0111454 1.90509e-19
Li 1.33121 2.34805 6.05547e-19
3
 Atoms. Timestep: 6900
Li -0.200042 -0.140458 -2.50484e-19
Li 2.51289 -0.139987 -2.21497e-19
Li 1.15681 2.20883 1.3195e-18
3
 Atoms. Timestep: 6950
Li -0.1246 -0.0788538 -1.21576e-19
Li 2.57217 -0.0804685 -1.31236e-19
Li 1.2224 2.25677 -1.22916e-18
3
 Atoms. Timestep: 7000
Li 0.00230503 0.0299131 3.72316e-19
Li 2.71362 0.0326595 3.50481e-19
Li 1.36035 2.3778 -7.11929e-19
3
 Atoms. Timestep: 7050
Li -0.136183 -0.0877883 -4.97691e-20
Li 2.56566 -0.0912534 -2.4613e-20
Li 1.21171 2.25221 1.54805e-18
3
 Atoms. Timestep: 7100
Li -0.190956 -0.13429 -4.18107e-19
Li 2.51331 -0.13014 -4.04954e-19
Li 1.16477 2.20756 -4.02243e-20
3
 Atoms. Timestep: 7150
Li -0.0163143 0.0144701 2.796e-19
Li 2.69269 0.00998977 2.45211e-19
Li 1.33433 2.36058 -1.49702e-18
3
 Atoms. Timestep: 7200
Li -0.0633452 -0.0273831 3.39295e-19
Li 2.63529 -0.0230292 3.36012e-19
Li 1.28974 2.30968 7.4906e-19
3
 Atoms. Timestep: 7250
Li -0.212858 -0.1511 -4.95912e-19
Li 2.49863 -0.155216 -4.62208e-19
Li 1.1393 2.19708 1.10501e-18
3
 Atoms. Timestep: 7300
Li -0.075433 -0.0373686 -1.25161e-19
Li 2.62439 -0.0339278 -1.33479e-19
Li 1.27747 2.3008 -1.24849e-18
3
 Atoms. Timestep: 7350
Li -0.00943337 0.019909 6.17003e-19
Li 2.6977 0.0173668 5.92756e-19
Li 1.34194 2.36422 -4.84705e-19
3
 Atoms. Timestep: 7400
Li -0.183124 -0.127257 -1.85192e-19
Li 2.52329 -0.12564 -1.64258e-19
Li 1.17146 2.21671 1.4348e-18
3
 Atoms. Timestep: 7450
Li -0.14732 -0.097581 -5.80532e-19
Li 2.55291 -0.0978783 -5.69716e-19
Li 1.20253 2.24071 -2.01341e-19
3
 Atoms. Timestep: 7500
Li 0.00102226 0.0291 5.08518e-19
Li 2.71279 0.0282819 4.77094e-19
Li 1.35622 2.37772 -1.28743e-18
3
 Atoms. Timestep: 7550
Li -0.113891 -0.0698992 3.66883e-19
Li 2.58382 -0.0679879 3.68975e-19
Li 1.23661 2.26621 7.87963e-19
3
 Atoms. Timestep: 7600
Li -0.202492 -0.142647 -7.41903e-19
Li 2.50801 -0.145641 -7.0692e-19
Li 1.15015 2.20487 8.68835e-19
3
 Atoms. Timestep: 7650
Li -0.0310775 0.000469817 -1.12748e-20
Li 2.67137 0.00409503 -2.37458e-20
Li 1.3233 2.34071 -1.15064e-18
3
 Atoms. Timestep: 7700
Li -0.0437535 -0.00946038 7.9785e-19
Li 2.65971 -0.0137101 7.69148e-19
Li 1.30431 2.33187 -3.02385e-19
3
 Atoms. Timestep: 7750
Li -0.210279 -0.149853 -3.9991e-19
Li 2.49995 -0.145405 -3.79356e-19
Li 1.14866 2.19721 1.23139e-18
3
 Atoms. Timestep: 7800
Li -0.0938073 -0.0525526 -6.35812e-19
Li 2.60313 -0.0568011 -6.21352e-19
Li 1.25098 2.28305 -2.665e-19
3
 Atoms. Timestep: 7850
Li -0.00635022 0.0227748 7.50911e-19
Li 2.70748 0.0266891 7.23856e-19
Li 1.35398 2.37305 -1.0449e-18
3
 Atoms. Timestep: 7900
Li -0.159869 -0.108355 2.78758e-19
Li 2.53723 -0.111538 2.81162e-19
Li 1.18592 2.2273 7.12152e-19
3
 Atoms. Timestep: 7950
Li -0.171057 -0.116665 -9.31356e-19
Li 2.53878 -0.114443 -9.00633e-19
Li 1.18576 2.23025 6.67403e-19
3
 Atoms. Timestep: 8000
Li -0.00166347 0.0259525 1.88962e-19
Li 2.70237 0.0246718 1.72602e-19
Li 1.34926 2.36755 -9.57604e-19
3
 Atoms. Timestep: 8050
Li -0.0932466 -0.051881 8.72458e-19
Li 2.60838 -0.0519629 8.4403e-19
Li 1.25751 2.28796 -2.09679e-19
3
 Atoms. Timestep: 8100
Li -0.210247 -0.149307 -6.42408e-19
Li 2.50133 -0.148193 -6.18084e-19
Li 1.14649 2.19881 9.83988e-19
3
 Atoms. Timestep: 8150
Li -0.0449058 -0.0115829 -5.71852e-19
Li 2.65156 -0.013799 -5.53453e-19
Li 1.3014 2.32378 -2.18365e-19
3
 Atoms. Timestep: 8200
Li -0.0340581 -0.000569317 9.51975e-19
Li 2.67911 0.00261483 9.2513e-19
Li 1.32531 2.34893 -8.24289e-19
3
 Atoms. Timestep: 8250
Li -0.193338 -0.136394 9.83462e-20
Li 2.50545 -0.140169 9.58753e-20
Li 1.15278 2.20093 5.37709e-19
3
 Atoms. Timestep: 8300
Li -0.123415 -0.0768538 -1.02307e-18
Li 2.58429 -0.0725659 -9.96854e-19
Li 1.23413 2.268 5.46308e-19
3
 Atoms. Timestep: 8350
Li 0.00366124 0.0309322 4.24582e-19
Li 2.7097 0.0265388 4.10188e-19
Li 1.35289 2.37445 -7.13005e-19
3
 Atoms. Timestep: 8400
Li -0.144068 -0.0952514 8.25562e-19
Li 2.55638 -0.091162 8.02361e-19
Li 1.20971 2.2434 -2.28168e-19
3
 Atoms. Timestep: 8450
Li -0.1851 -0.127719 -8.52736e-19
Li 2.52625 -0.131426 -8.26421e-19
Li 1.16734 2.22031 7.4841e-19
3
 Atoms. Timestep: 8500
Li -0.0108393 0.0169694 -4.04239e-19
Li 2.68738 0.0198446 -3.87582e-19
Li 1.34076 2.35378 -6.64398e-20
3
 Atoms. Timestep: 8550
Li -0.0756717 -0.0356567 1.06449e-18
Li 2.63435 -0.0375759 1.0345e-18
Li 1.2777 2.31114 -6.74333e-19
3
 Atoms. Timestep: 8600
Li -0.207197 -0.147987 -1.3208e-19
Li 2.49564 -0.147084 -1.37667e-19
Li 1.145 2.19289 3.02248e-19
3
 Atoms. Timestep: 8650
Li -0.0696345 -0.0316292 -9.98642e-19
Li 2.63398 -0.0312184 -9.72045e-19
Li 1.28251 2.30959 5.30856e-19
3
 Atoms. Timestep: 8700
Li -0.017715 0.013025 6.39563e-19
Li 2.6917 0.0115992 6.3064e-19
Li 1.33577 2.35961 -4.70256e-19
3
 Atoms. Timestep: 8750
Li -0.182238 -0.127519 6.72479e-19
Li 2.51629 -0.125056 6.52879e-19
Li 1.16917 2.2093 -3.5172e-19
3
 Atoms. Timestep: 8800
Li -0.143532 -0.0927252 -9.79677e-19
Li 2.56788 -0.0960937 -9.56869e-19
Li 1.20923 2.25556 5.75872e-19
3
 Atoms. Timestep: 8850
Li 0.00334101 0.0291598 -1.75275e-19
Li 2.70337 0.0330281 -1.63724e-19
Li 1.3567 2.36733 1.54529e-19
3
 Atoms. Timestep: 8900
Li -0.123812 -0.0765792 1.06034e-18
Li 2.5829 -0.0808808 1.02962e-18
Li 1.22584 2.26754 -6.2635e-19
3
 Atoms. Timestep: 8950
Li -0.196331 -0.138512 -3.58e-19
Li 2.51057 -0.134231 -3.61017e-19
Li 1.16082 2.2057 5.69432e-20
3
 Atoms. Timestep: 9000
Li -0.024017 0.00666922 -8.64072e-19
Li 2.6755 0.00274946 -8.34204e-19
Li 1.32233 2.34448 6.21447e-19
3
 Atoms. Timestep: 9050
Li -0.0590668 -0.0218457 7.84662e-19
Li 2.65359 -0.0183931 7.77949e-19
Li 1.30026 2.32744 -2.79971e-19
3
 Atoms. Timestep: 9100
Li -0.199866 -0.142214 4.51909e-19
Li 2.49677 -0.144792 4.30188e-19
Li 1.14623 2.19302 -5.49733e-19
3
 Atoms. Timestep: 9150
Li -0.0953288 -0.0524407 -9.9434e-19
Li 2.61644 -0.0508646 -9.76806e-19
Li 1.2619 2.29616 5.00114e-19
3
 Atoms. Timestep: 9200
Li -0.0047621 0.0228787 5.74127e-20
Li 2.69634 0.022318 6.76338e-20
Li 1.3453 2.36193 3.9381e-19
3
 Atoms. Timestep: 9250
Li -0.168407 -0.114838 9.39869e-19
Li 2.53635 -0.115593 9.1318e-19
Li 1.18334 2.22771 -6.86276e-19
3
 Atoms. Timestep: 9300
Li -0.162075 -0.10903 -5.23659e-19
Li 2.547 -0.107347 -5.22921e-19
Li 1.19391 2.23691 -1.45083e-19
3
 Atoms. Timestep: 9350
Li 0.000943868 0.0273246 -6.49322e-19
Li 2.69866 0.0246173 -6.19184e-19
Li 1.34744 2.36377 7.94016e-19
3
 Atoms. Timestep: 9400
Li -0.108106 -0.0630596 8.25561e-19
Li 2.60538 -0.0595633 8.16205e-19
Li 1.25168 2.28674 -1.79535e-19
3
 Atoms. Timestep: 9450
Li -0.195823 -0.138711 2.14739e-19
Li 2.50108 -0.142653 1.89034e-19
Li 1.14923 2.19695 -7.75843e-19
3
 Atoms. Timestep: 9500
Li -0.049242 -0.0138707 -8.94734e-19
Li 2.66135 -0.00961454 -8.78453e-19
Li 1.30972 2.33352 5.30588e-19
3
 Atoms. Timestep: 9550
Li -0.035111 -0.00224251 2.38098e-19
Li 2.66769 -0.00639423 2.5262e-19
Li 1.31269 2.33844 5.98295e-19
3
 Atoms. Timestep: 9600
Li -0.197392 -0.139861 7.32413e-19
Li 2.50582 -0.136157 7.10119e-19
Li 1.15744 2.20121 -8.33283e-19
3
 Atoms. Timestep: 9650
Li -0.114126 -0.0680516 -5.87434e-19
Li 2.59569 -0.0712519 -5.88004e-19
Li 1.23801 2.27862 -2.62122e-19
3
 Atoms. Timestep: 9700
Li 0.000549659 0.0266155 -4.03934e-19
Li 2.69869 0.0288546 -3.77706e-19
Li 1.35154 2.36339 1.00515e-18
3
 Atoms. Timestep: 9750
Li -0.153312 -0.101022 7.49971e-19
Li 2.55837 -0.102282 7.38575e-19
Li 1.20145 2.24719 -1.84918e-19
3
 Atoms. Timestep: 9800
Li -0.172284 -0.118845 1.41466e-20
Li 2.5276 -0.118654 -1.14852e-20
Li 1.17783 2.21948 -9.78749e-19
3
 Atoms. Timestep: 9850
Li -0.0143882 0.0154038 -7.03048e-19
Li 2.69268 0.0164466 -6.84205e-19
Li 1.34003 2.35961 6.52085e-19
3
 Atoms. Timestep: 9900
Li -0.0822128 -0.0417899 3.26617e-19
Li 2.62405 -0.0437369 3.45322e-19
Li 1.26923 2.30206 7.25631e-19
3
 Atoms. Timestep: 9950
Li -0.20207 -0.144012 4.86878e-19
Li 2.4986 -0.141118 4.64604e-19
Li 1.15079 2.19467 -1.02643e-18
3
 Atoms. Timestep: 10000
Li -0.0663624 -0.0276327 -5.34399e-19
Li 2.64449 -0.0312441 -5.40492e-19
Li 1.28593 2.32014 -2.74499e-19
3
 Atoms. Timestep: 10050
Li -0.0220132 0.00758765 -1.85685e-19
Li 2.67688 0.0115473 -1.62532e-19
Li 1.33084 2.3448 1.20261e-18
3
 Atoms. Timestep: 10100
Li -0.186678 -0.129311 5.72986e-19
Li 2.52252 -0.1335 5.646e-19
Li 1.16431 2.21694 -2.86671e-19
3
 Atoms. Timestep: 10150
Li -0.133117 -0.0855748 -1.03929e-19
Li 2.57048 -0.0816013 -1.25898e-19
Li 1.22214 2.2558 -1.11317e-18
3
 Atoms. Timestep: 10200
Li 3.01973e-05 0.0273723 -4.60321e-19
Li 2.70282 0.0238844 -4.40552e-19
Li 1.34839 2.36798 8.29014e-19
3
 Atoms. Timestep: 10250
Li -0.13391 -0.0853044 3.04497e-19
Li 2.57631 -0.082399 3.22307e-19
Li 1.22371 2.2619 7.52812e-19
3
 Atoms. Timestep: 10300
Li -0.182192 -0.127204 2.57704e-19
Li 2.51552 -0.129124 2.32538e-19
Li 1.16502 2.20893 -1.21576e-18
3
 Atoms. Timestep: 10350
Li -0.0300915 0.00275411 -3.78718e-19
Li 2.68222 0.00366879 -3.88013e-19
Li 1.32685 2.35183 -1.88585e-19
3
 Atoms. Timestep: 10400
Li -0.0601092 -0.0241671 -4.44759e-20
Li 2.63899 -0.0240345 -1.97449e-20
Li 1.28954 2.31315 1.33897e-18
3
 Atoms. Timestep: 10450
Li -0.202276 -0.142991 3.35239e-19
Li 2.50535 -0.144327 3.32023e-19
Li 1.15039 2.20205 -4.52038e-19
3
 Atoms. Timestep: 10500
Li -0.0858588 -0.0451463 -1.11664e-19
Li 2.62017 -0.0429881 -1.32122e-19
Li 1.26904 2.29817 -1.15046e-18
3
 Atoms. Timestep: 10550
Li -0.0109861 0.0176182 -2.19455e-19
Li 2.68915 0.0145458 -2.03043e-19
Li 1.3364 2.35613 1.0136e-18
3
 Atoms. Timestep: 10600
Li -0.175886 -0.120451 1.76494e-19
Li 2.53644 -0.116779 1.90924e-19
Li 1.18345 2.22836 6.79949e-19
3
 Atoms. Timestep: 10650
Li -0.145298 -0.096106 9.30768e-20
Li 2.55122 -0.100061 6.72923e-20
Li 1.19955 2.23919 -1.35426e-18
3
 Atoms. Timestep: 10700
Li -0.0111342 0.0185441 -1.56584e-19
Li 2.70125 0.0226141 -1.63811e-19
Li 1.34858 2.3675 -3.31463e-20
3
 Atoms. Timestep: 10750
Li -0.106514 -0.0629065 -9.06496e-21
Li 2.5935 -0.0666931 1.92125e-20
Li 1.24019 2.27534 1.38327e-18
3
 Atoms. Timestep: 10800
Li -0.19551 -0.13784 9.14297e-20
Li 2.51073 -0.134606 8.95687e-20
Li 1.16042 2.20589 -6.33833e-19
3
 Atoms. Timestep: 10850
Li -0.0425011 -0.00796994 -8.37869e-21
Li 2.66482 -0.0105903 -3.20326e-20
Li 1.30891 2.33652 -1.08584e-18
3
 Atoms. Timestep: 10900
Li -0.0439976 -0.01075 -3.39387e-20
Li 2.65547 -0.00918069 -2.12909e-20
Li 1.30708 2.32719 1.15685e-18
3
 Atoms. Timestep: 10950
Li -0.198386 -0.139101 -2.95741e-20
Li 2.5135 -0.139706 -1.50883e-20
Li 1.15702 2.20929 5.2997e-19
3
 Atoms. Timestep: 11000
Li -0.10138 -0.0591758 2.66075e-20
Li 2.59674 -0.0596451 3.81757e-21
Li 1.24729 2.27761 -1.4079e-18
3
 Atoms. Timestep: 11050
Li -0.011738 0.0179741 8.39657e-20
Li 2.69815 0.0195463 7.96597e-20
Li 1.34457 2.36462 1.48766e-19
3
 Atoms. Timestep: 11100
Li -0.152461 -0.101478 -8.24496e-20
Li 2.55052 -0.103848 -5.37486e-20
Li 1.19696 2.23952 1.32753e-18
3
 Atoms. Timestep: 11150
Li -0.166145 -0.11334 -1.05518e-19
Li 2.53744 -0.110145 -1.10436e-19
Li 1.18842 2.22789 -7.83303e-19
3
 Atoms. Timestep: 11200
Li -0.0153661 0.0151914 1.78768e-19
Li 2.69367 0.0114759 1.51357e-19
Li 1.33595 2.36136 -9.3927e-19
3
 Atoms. Timestep: 11250
Li -0.0884373 -0.0484367 5.64683e-20
Li 2.61075 -0.044538 6.95709e-20
Li 1.26452 2.28906 1.22088e-18
3
 Atoms. Timestep: 11300
Li -0.198903 -0.13948 -2.66794e-19
Li 2.51157 -0.143417 -2.48133e-19
Li 1.15292 2.20785 3.43488e-19
3
 Atoms. Timestep: 11350
Li -0.0589949 -0.0233338 7.048e-20
Li 2.642 -0.0197723 5.01061e-20
Li 1.2946 2.31581 -1.36276e-18
3
 Atoms. Timestep: 11400
Li -0.0323178 0.000471213 2.92092e-19
Li 2.6737 -0.00251544 2.86433e-19
Li 1.31811 2.34385 3.09672e-19
3
 Atoms. Timestep: 11450
Li -0.186896 -0.130397 -2.4431e-19
Li 2.52021 -0.128098 -2.18547e-19
Li 1.16863 2.21413 1.18667e-18
3
 Atoms. Timestep: 11500
Li -0.121405 -0.0756547 -2.16801e-19
Li 2.57858 -0.0769037 -2.23873e-19
Li 1.22752 2.26244 -8.61765e-19
3
 Atoms. Timestep: 11550
Li -0.0109029 0.0188957 4.03914e-19
Li 2.70054 0.0191737 3.76959e-19
Li 1.34507 2.36722 -7.49268e-19
3
 Atoms. Timestep: 11600
Li -0.132553 -0.0854575 3.68078e-20
Li 2.56584 -0.084703 5.33129e-20
Li 1.21728 2.25124 1.18839e-18
3
 Atoms. Timestep: 11650
Li -0.179649 -0.123584 -4.80243e-19
Li 2.53001 -0.125393 -4.58634e-19
Li 1.17361 2.22321 1.68965e-19
3
 Atoms. Timestep: 11700
Li -0.0257974 0.00512526 2.11095e-19
Li 2.67735 0.00765741 1.89197e-19
Li 1.32799 2.34595 -1.22851e-18
3
 Atoms. Timestep: 11750
Li -0.0697717 -0.0315686 4.23364e-19
Li 2.63332 -0.0348729 4.13496e-19
Li 1.27891 2.30947 4.0801e-19
3
 Atoms. Timestep: 11800
Li -0.200059 -0.141174 -4.56316e-19
Li 2.50998 -0.137464 -4.32312e-19
Li 1.15815 2.20569 9.94182e-19
3
 Atoms. Timestep: 11850
Li -0.0740924 -0.0358722 -2.23502e-19
Li 2.62349 -0.0396971 -2.28322e-19
Li 1.27139 2.30032 -8.48477e-19
3
 Atoms. Timestep: 11900
Li -0.0275552 0.00476323 6.15785e-19
Li 2.68523 0.00852887 5.92288e-19
Li 1.33211 2.35409 -5.6216e-19
3
 Atoms. Timestep: 11950
Li -0.167799 -0.114899 -8.10418e-20
Li 2.53043 -0.118236 -6.33661e-20
Li 1.17841 2.22177 1.06584e-18
3