9
 Atoms. Timestep: 100
Li -1.28169 -2.21649 2.16783
Li -1.84842 -0.628601 0.0219139
Li 0.667727 -0.418964 1.34844
Li 0.0509359 -2.63346 -0.262618
Li 0.472183 -0.126895 -1.40613
Li 2.12452 1.51232 0.0629339
Li -0.609341 1.81723 0.331607
Li 0.634423 2.56537 -2.03007
Li -1.62826 0.508585 2.56785
9
 Atoms. Timestep: 150
Li -1.31949 -2.11782 2.18245
Li -1.86989 -0.632493 0.0173792
Li 0.63201 -0.391891 1.32179
Li 0.130417 -2.61535 -0.212138
Li 0.443374 -0.23491 -1.51645
Li 2.09623 1.37248 0.0119465
Li -0.669952 1.78608 0.250948
Li 0.734886 2.50214 -2.004
Li -1.55528 0.614512 2.58129
9
 Atoms. Timestep: 200
Li -1.41429 -2.04138 2.27758
Li -1.90211 -0.659753 -0.0272614
Li 0.562234 -0.388463 1.29099
Li 0.199269 -2.67267 -0.0806827
Li 0.38188 -0.316255 -1.63997
Li 2.18031 1.18395 -0.07788
Li -0.661803 1.77196 0.0805993
Li 0.848975 2.42521 -2.10888
Li -1.4945 0.794114 2.59327
9
 Atoms. Timestep: 250
Li -1.53802 -1.85313 2.36382
Li -1.87893 -0.738439 -0.0189572
Li 0.517819 -0.350655 1.28306
Li 0.163902 -2.72956 0.04766
Li 0.32087 -0.409205 -1.62117
Li 2.24421 0.947291 -0.301659
Li -0.557797 1.7096 -0.0989856
Li 1.01663 2.28391 -2.29616
Li -1.47902 0.974061 2.49036
9
 Atoms. Timestep: 300
Li -1.61308 -1.61211 2.52344
Li -1.9223 -0.704171 -0.029107
Li 0.602865 -0.317018 1.31373
Li 0.0421452 -2.73229 0.179899
Li 0.290352 -0.664656 -1.68459
Li 2.34598 0.659022 -0.489611
Li -0.461368 1.66594 -0.267676
Li 1.17509 2.05599 -2.51947
Li -1.51583 1.1617 2.259
9
 Atoms. Timestep: 350
Li -1.60334 -1.31928 2.60953
Li -1.89829 -0.591285 0.0471112
Li 0.583589 -0.21795 1.31862
Li -0.128221 -2.68586 0.371978
Li 0.262478 -0.896467 -1.78835
Li 2.38354 0.287396 -0.628766
Li -0.267658 1.53903 -0.533054
Li 1.29343 1.67623 -2.68365
Li -1.53232 1.36278 1.94626
9
 Atoms. Timestep: 400
Li -1.5818 -1.04458 2.69422
Li -1.88981 -0.511641 -0.032807
Li 0.600374 -0.0981682 1.34125
Li -0.24082 -2.6032 0.600368
Li 0.11453 -1.13533 -1.85034
Li 2.38078 -0.167114 -0.702199
Li -0.134852 1.45927 -0.753652
Li 1.51842 1.19675 -2.97737
Li -1.51945 1.68926 1.69409
9
 Atoms. Timestep: 450
Li -1.64874 -0.651617 2.6296
Li -1.91362 -0.433831 -0.0114419
Li 0.627972 0.154862 1.32988
Li -0.21387 -2.46714 0.793566
Li -0.0781311 -1.33946 -1.8913
Li 2.21957 -0.67125 -0.753043
Li 0.0409957 1.34836 -1.02343
Li 1.7539 0.592614 -3.12797
Li -1.3924 1.89742 1.44619
9
 Atoms. Timestep: 500
Li -1.73374 -0.226163 2.63849
Li -1.84739 -0.29429 -0.0909423
Li 0.760642 0.363356 1.27366
Li -0.0408636 -2.15057 0.879048
Li -0.370869 -1.53531 -2.00784
Li 1.95406 -1.23673 -0.598102
Li 0.17984 1.10038 -1.30518
Li 1.90819 -0.0469973 -3.10074
Li -1.28204 2.13971 1.14985
9
 Atoms. Timestep: 550
Li -1.67214 0.237482 2.548
Li -1.79618 -0.185305 -0.0927285
Li 0.874907 0.683638 1.22714
Li -0.293704 -2.02583 1.15818
Li -0.514616 -1.73913 -2.16442
Li 1.85782 -1.65546 -0.634273
Li 0.305316 0.829551 -1.43343
Li 2.03452 -0.677778 -3.0018
Li -1.16125 2.39026 0.783819
9
 Atoms. Timestep: 600
Li -1.48133 0.732658 2.42123
Li -1.8152 -0.154018 -0.204633
Li 0.926327 0.719629 1.11582
Li -0.544279 -1.87273 1.53447
Li -0.484009 -1.85239 -2.1625
Li 1.49556 -1.95269 -0.327173
Li 0.510258 0.576075 -1.52682
Li 2.12697 -1.07632 -3.13291
Li -1.02548 2.55955 0.362221
9
 Atoms. Timestep: 650
Li -1.41764 1.15694 2.25497
Li -1.63724 -0.153502 -0.276883
Li 0.930252 0.549713 1.00742
Li -0.689056 -1.53204 1.91685
Li -0.546375 -1.97482 -2.23192
Li 1.05975 -1.97099 -0.0571657
Li 0.680626 0.446848 -1.6329
Li 2.12102 -1.39966 -2.95334
Li -0.756134 2.47009 -0.0998483
9
 Atoms. Timestep: 700
Li -1.5474 1.5287 1.98798
Li -1.32812 -0.33758 -0.170554
Li 0.9699 0.543806 1.05608
Li -0.864458 -1.18156 2.39842
Li -0.684651 -2.00234 -2.41509
Li 0.720535 -1.93808 -0.107169
Li 0.735768 0.421485 -1.82629
Li 2.14497 -1.76522 -2.50745
Li -0.405147 2.3325 -0.472772
9
 Atoms. Timestep: 750
Li -1.67941 1.78101 1.59611
Li -1.49129 -0.278771 -0.057107
Li 0.970454 0.668308 1.09807
Li -0.782565 -0.887224 2.63847
Li -0.728055 -1.86275 -2.61403
Li 0.564293 -2.18043 -0.00248955
Li 0.786175 0.199942 -1.95754
Li 2.30478 -2.16647 -2.01905
Li -0.246637 2.43269 -0.55632
9
 Atoms. Timestep: 800
Li -1.8363 1.96138 1.50999
Li -1.53102 -0.277722 -0.168633
Li 0.89087 0.677449 0.89559
Li -0.616255 -0.642909 2.53859
Li -0.707013 -1.86897 -2.64049
Li 0.192349 -2.2134 0.277917
Li 0.84735 0.113025 -1.56972
Li 2.4904 -2.35502 -1.64114
Li -0.112999 2.50497 -0.739223
9
 Atoms. Timestep: 850
Li -1.79386 1.93652 1.39848
Li -1.58574 -0.0549241 -0.333369
Li 1.02054 0.967487 1.07981
Li -0.747047 -0.668655 2.43229
Li -0.61887 -2.00314 -2.42614
Li 0.0384282 -2.21151 0.308873
Li 1.00152 -0.132079 -1.59571
Li 2.39216 -2.24287 -1.1007
Li -0.201146 2.57484 -0.833819
9
 Atoms. Timestep: 900
Li -1.64964 1.91558 1.4966
Li -1.45061 -0.0192371 -0.560528
Li 0.973643 1.24667 1.17155
Li -0.948099 -0.634993 2.17687
Li -0.611813 -2.26825 -2.27313
Li -0.115418 -2.18081 0.280266
Li 0.992506 0.235021 -1.43903
Li 2.49537 -2.2151 -0.516022
Li -0.314553 2.4093 -0.842698
9
 Atoms. Timestep: 950
Li -1.75431 2.08086 1.62818
Li -1.57702 -0.162205 -0.5763
Li 0.914649 1.26002 1.21127
Li -1.06853 -0.490864 2.11693
Li -0.470754 -2.23162 -2.43495
Li -0.113917 -2.42066 0.33063
Li 1.23404 0.105207 -1.24937
Li 2.60515 -1.86884 -0.0433386
Li -0.546366 2.57189 -0.867071
9
 Atoms. Timestep: 1000
Li -1.97645 2.27571 1.57206
Li -1.50739 -0.2119 -0.447403
Li 0.722985 1.26207 1.14623
Li -0.966293 -0.611798 2.1195
Li -0.166367 -1.89781 -2.47055
Li -0.0711533 -2.53884 0.209987
Li 1.00353 -0.0442087 -1.19428
Li 2.70284 -1.46299 0.551697
Li -0.670714 2.43761 -0.73439
9
 Atoms. Timestep: 1050
Li -2.1652 2.0605 1.57949
Li -1.66836 -0.23241 -0.282582
Li 0.620907 1.29218 1.3611
Li -0.723574 -0.908784 2.24429
Li -0.107483 -1.86599 -2.73581
Li 0.0343093 -2.3569 0.0415108
Li 1.11474 0.235427 -1.05478
Li 2.54852 -0.937427 1.14303
Li -0.727823 2.26847 -0.935986
9
 Atoms. Timestep: 1100
Li -2.22046 1.63116 1.48786
Li -1.75808 -0.321474 -0.0546968
Li 0.366844 1.52839 1.57775
Li -0.364841 -1.2174 2.32701
Li -0.0475085 -1.72828 -2.87619
Li 0.29238 -2.04707 -0.21583
Li 1.21296 0.256485 -0.960533
Li 2.09037 -0.373752 1.5553
Li -0.773525 2.13345 -0.944366
9
 Atoms. Timestep: 1150
Li -2.75006 1.5634 1.63529
Li -1.60222 -0.711418 -0.0271215
Li 0.166821 1.98114 1.61222
Li -0.244519 -1.4216 2.2607
Li 0.0853213 -1.35114 -2.91298
Li 0.648708 -2.28014 -0.246035
Li 1.22239 0.463741 -0.932843
Li 2.1468 -0.134722 1.69126
Li -0.977193 1.99682 -0.756324
9
 Atoms. Timestep: 1200
Li -3.10752 1.36887 1.56122
Li -1.38287 -0.767482 -0.0401548
Li 0.178143 2.13217 1.70027
Li -0.148838 -1.58025 2.16916
Li 0.243787 -0.890553 -2.69817
Li 1.0057 -2.50621 -0.274652
Li 1.09048 0.519822 -0.731093
Li 2.25367 0.168937 1.54294
Li -1.50583 1.82688 -0.614801
9
 Atoms. Timestep: 1250
Li -3.27868 0.999775 1.52085
Li -1.20655 -0.971634 -0.145986
Li 0.0433106 2.07726 1.57451
Li 0.326819 -1.62984 2.09867
Li 0.207381 -0.810068 -2.62864
Li 1.08623 -2.28619 -0.396328
Li 0.746092 0.837631 -0.483383
Li 2.36902 0.285721 1.72831
Li -1.69884 1.84603 -0.51945
9
 Atoms. Timestep: 1300
Li -3.29268 0.507177 1.54543
Li -1.43379 -1.10009 -0.012996
Li -0.29672 2.16912 1.88895
Li 0.733677 -1.56592 2.00919
Li 0.0447813 -0.839341 -2.68772
Li 1.28207 -1.99388 -0.637051
Li 0.908648 0.789119 -0.665431
Li 2.43432 0.453606 1.79946
Li -1.77805 1.911 -0.522586
9
 Atoms. Timestep: 1350
Li -3.13028 0.206333 1.52095
Li -1.24712 -1.02151 0.118968
Li -0.518992 1.98267 1.9381
Li 0.778486 -1.56095 1.82979
Li -0.29493 -0.790252 -2.8581
Li 1.44244 -1.85117 -0.772835
Li 0.809973 0.714484 -0.474517
Li 2.47157 0.894768 1.56873
Li -1.66275 1.64588 -0.347223
9
 Atoms. Timestep: 1400
Li -3.02585 0.228524 1.68925
Li -1.06169 -1.28919 -0.0878407
Li -0.39424 1.54212 2.02121
Li 1.03675 -1.31647 1.80637
Li -0.514252 -0.673968 -2.62638
Li 1.39883 -1.91799 -1.09993
Li 0.776169 0.793447 -0.496212
Li 2.482 1.24497 1.47958
Li -1.96793 1.41378 -0.503347
9
 Atoms. Timestep: 1450
Li -2.7277 0.198096 1.84932
Li -1.35381 -1.50607 0.120189
Li -0.232444 0.962859 1.73278
Li 1.41242 -0.929238 1.56425
Li -0.699984 -0.40233 -2.49067
Li 1.25834 -1.9711 -1.26496
Li 0.740919 0.753742 -0.661263
Li 2.51864 1.50294 1.52871
Li -2.07576 1.15082 -0.660105
9
 Atoms. Timestep: 1500
Li -2.88902 0.0760442 2.05085
Li -1.21865 -1.47979 0.460891
Li -0.251115 1.0405 1.59165
Li 1.90776 -1.18671 1.00015
Li -0.954255 -0.434253 -2.72737
Li 0.804349 -1.97065 -1.23976
Li 0.972337 0.692234 -0.845255
Li 2.47865 1.76904 1.3661
Li -1.87702 0.936094 -0.493916
9
 Atoms. Timestep: 1550
Li -3.12399 0.0539778 2.13174
Li -0.843267 -1.38567 1.00069
Li -0.026143 1.12043 1.70144
Li 2.22334 -1.24468 0.645566
Li -1.06326 -0.505826 -2.9525
Li 0.285859 -2.28201 -1.50299
Li 1.03226 0.619783 -1.08449
Li 2.39833 1.80587 0.987374
Li -1.76542 0.914032 -0.369833
9
 Atoms. Timestep: 1600
Li -3.00329 0.131916 1.93003
Li -0.471303 -1.35412 1.46086
Li 0.0852404 1.28179 1.84264
Li 2.15974 -1.1909 0.297957
Li -1.12965 -0.310196 -3.03023
Li -0.0606561 -2.5462 -1.43717
Li 0.696469 0.306944 -1.2393
Li 2.6213 1.68761 0.435026
Li -1.63327 0.737183 -0.318347
9
 Atoms. Timestep: 1650
Li -2.83891 0.146453 2.05932
Li -0.255278 -1.35246 1.55274
Li 0.259096 1.59273 1.62582
Li 2.11841 -1.43605 0.300281
Li -1.31665 -0.292748 -3.11795
Li -0.457061 -2.35918 -1.1128
Li 0.790483 0.179464 -1.43368
Li 2.67291 1.34014 -0.144402
Li -1.5695 0.592914 -0.369987
9
 Atoms. Timestep: 1700
Li -2.61188 0.120332 2.39204
Li -0.345767 -0.978588 1.62043
Li 0.426173 1.65256 0.998599
Li 2.12982 -1.77747 0.334989
Li -1.51137 -0.457786 -3.11986
Li -0.885915 -1.92722 -0.807353
Li 0.872631 -0.100646 -1.86104
Li 2.93026 1.09908 -0.325236
Li -1.47908 0.490183 -0.381967
9
 Atoms. Timestep: 1750
Li -2.57978 0.360072 2.52009
Li -0.0106676 -0.648802 1.74125
Li 0.822127 1.72295 0.326986
Li 1.8242 -1.83392 0.205843
Li -1.60957 -0.652338 -3.00014
Li -1.1577 -2.12898 -0.7518
Li 0.996404 -0.388931 -1.93649
Li 3.1164 0.696567 -0.383845
Li -1.78093 0.764753 -0.272029
9
 Atoms. Timestep: 1800
Li -2.56091 0.701539 2.42407
Li 0.102314 -0.208482 1.67191
Li 0.881337 1.75559 -0.315456
Li 1.59465 -2.0784 0.135652
Li -1.56822 -0.73 -2.79596
Li -1.14824 -2.1434 -0.453917
Li 0.785159 -0.367318 -1.84587
Li 3.38789 0.0333611 -0.524241
Li -1.79005 0.776475 -0.11222
9
 Atoms. Timestep: 1850
Li -2.47259 1.01096 2.36439
Li 0.179344 0.12182 1.5707
Li 0.870283 2.09046 -0.584758
Li 1.51856 -2.43646 0.265357
Li -1.863 -0.805013 -2.65184
Li -1.07497 -1.8615 -0.0711389
Li 0.787372 -0.542196 -1.7268
Li 3.31842 -0.579196 -0.650866
Li -1.55235 0.675481 -0.444809
9
 Atoms. Timestep: 1900
Li -2.23154 1.24336 2.05257
Li 0.439732 0.164523 1.38809
Li 0.847661 2.43582 -0.618648
Li 1.46204 -2.6865 0.507435
Li -2.02715 -1.08143 -2.57816
Li -1.22619 -1.71782 0.25169
Li 0.58057 -0.785216 -1.4377
Li 3.23681 -0.943641 -0.714678
Li -1.38159 1.07097 -0.735386
9
 Atoms. Timestep: 1950
Li -1.86335 1.33774 1.65879
Li 0.594237 0.176273 1.04018
Li 1.0507 2.66517 -0.541719
Li 1.18693 -2.71135 0.760884
Li -1.89066 -1.38242 -2.34052
Li -1.65629 -1.57776 0.554258
Li 0.427213 -0.799799 -1.29445
Li 3.14833 -1.07465 -0.679235
Li -1.34432 1.1808 -0.843672
9
 Atoms. Timestep: 2000
Li -1.65626 1.32831 1.74308
Li 0.719626 0.267543 1.11482
Li 1.14754 2.63424 -0.380385
Li 0.757947 -2.37428 0.858685
Li -1.92577 -1.65064 -2.07846
Li -1.86916 -1.20335 0.6404
Li 0.610558 -0.972382 -1.53051
Li 2.95919 -1.06834 -0.423866
Li -1.17166 1.04642 -1.29069
9
 Atoms. Timestep: 2050
Li -1.61264 1.53979 1.69239
Li 0.797025 0.30942 1.0178
Li 1.03199 2.50744 -0.300728
Li 0.348802 -2.32647 0.825173
Li -2.00886 -1.87862 -1.93173
Li -1.79515 -0.83742 0.492704
Li 0.686158 -1.10482 -1.67631
Li 2.99488 -0.914792 0.142199
Li -0.978365 0.972137 -1.15512
9
 Atoms. Timestep: 2100
Li -1.53777 2.01866 1.52518
Li 0.417723 0.141293 1.14481
Li 1.04637 2.89035 -0.37604
Li 0.278741 -2.68508 0.683256
Li -1.79655 -2.03684 -1.99249
Li -1.98712 -0.890472 0.607557
Li 0.859298 -1.17647 -1.46751
Li 2.96664 -0.811422 0.545347
Li -0.911353 1.12296 -1.02788
9
 Atoms. Timestep: 2150
Li -1.48009 2.39791 1.23402
Li 0.15768 -0.0585272 1.3367
Li 1.02887 3.18383 -0.273261
Li 0.219066 -2.91354 0.599856
Li -1.27212 -2.02279 -1.93
Li -2.27396 -1.13304 0.604539
Li 0.933006 -0.847255 -1.10879
Li 2.77738 -0.724637 0.774949
Li -0.892444 1.02304 -1.01496
9
 Atoms. Timestep: 2200
Li -1.43848 2.64604 1.06903
Li -0.163503 -0.231157 1.62949
Li 0.780602 3.16983 -0.146971
Li 0.114264 -2.77652 0.507149
Li -0.849019 -1.98345 -1.81482
Li -2.34483 -1.39124 0.318119
Li 1.27883 -0.517549 -1.05986
Li 2.73888 -0.591952 1.2417
Li -1.05904 0.915646 -0.93537
9
 Atoms. Timestep: 2250
Li -1.78809 2.65377 1.27739
Li -0.502507 -0.208463 1.71113
Li 0.737133 2.92931 -0.266805
Li 0.296035 -2.49314 0.561229
Li -0.47942 -1.80992 -2.13496
Li -2.36908 -1.57465 0.0556734
Li 1.54628 -0.182999 -0.918537
Li 2.61952 -0.41256 1.78721
Li -1.13332 0.652499 -0.714214
9
 Atoms. Timestep: 2300
Li -2.04685 2.32551 1.37934
Li -0.700057 -0.0320992 2.00384
Li 0.603416 2.48768 -0.357789
Li 0.649877 -2.12178 0.453179
Li -0.0242022 -1.43631 -2.30334
Li -2.28037 -1.90277 -0.202824
Li 1.54674 0.112987 -0.500653
Li 2.14736 -0.203576 2.03212
Li -1.08303 0.59653 -0.669365
9
 Atoms. Timestep: 2350
Li -2.21231 1.94402 1.28402
Li -0.866528 -0.166017 2.17043
Li 0.400024 2.80239 -0.209022
Li 0.615223 -1.9769 0.487919
Li 0.428141 -1.06268 -2.23184
Li -1.86122 -2.26093 -0.469324
Li 1.83304 0.40355 -0.552518
Li 1.73738 0.00100694 2.34356
Li -1.34937 0.353765 -0.617793
9
 Atoms. Timestep: 2400
Li -2.4964 1.96424 1.23302
Li -1.30025 -0.662392 2.12084
Li -0.0653162 2.96265 0.0333713
Li 0.699148 -1.6796 0.620572
Li 0.679658 -0.968378 -2.1928
Li -1.5465 -2.75382 -0.834653
Li 1.99181 0.852967 -0.405399
Li 1.70675 0.232878 2.35438
Li -1.002 0.227342 -0.483039
9
 Atoms. Timestep: 2450
Li -2.69334 1.8205 1.20347
Li -1.71778 -1.04731 2.01938
Li -0.450702 2.86337 0.249744
Li 1.08771 -1.57636 0.555816
Li 0.97124 -1.05031 -2.1098
Li -1.11973 -2.88942 -1.17771
Li 1.73386 1.20798 -0.291862
Li 1.53737 0.561448 2.25974
Li -0.704482 0.3405 -0.16714
9
 Atoms. Timestep: 2500
Li -2.97022 1.3587 1.2589
Li -1.97925 -1.37783 1.8476
Li -0.483697 3.13485 0.435253
Li 1.43661 -1.76433 0.590253
Li 1.24489 -0.97992 -2.04272
Li -0.588601 -2.68543 -1.31062
Li 1.60614 1.47438 -0.605339
Li 1.18291 0.895045 2.26085
Li -0.791405 0.143273 0.0520668
9
 Atoms. Timestep: 2550
Li -3.03289 0.839312 1.28628
Li -2.18724 -1.75929 1.77048
Li -0.490578 3.08546 0.616811
Li 1.51955 -1.68286 0.69573
Li 1.6548 -0.634992 -2.0822
Li -0.360828 -2.45761 -1.1047
Li 1.36842 1.63246 -0.763171
Li 0.773395 1.14581 1.8221
Li -0.539296 -0.0844549 0.0439508
9
 Atoms. Timestep: 2600
Li -2.90818 0.49682 1.24585
Li -2.09554 -2.12388 1.54778
Li -0.849001 3.10793 0.580586
Li 1.62596 -1.38154 0.80127
Li 1.8843 -0.647098 -2.04138
Li -0.258906 -2.65527 -1.09477
Li 1.22789 1.94385 -0.902124
Li 0.951203 1.13177 1.88941
Li -0.793316 0.0218119 -0.0727872
9
 Atoms. Timestep: 2650
Li -3.07313 0.495229 1.40611
Li -1.69053 -2.39271 1.16126
Li -1.26095 2.89163 0.458143
Li 1.57181 -1.22253 0.683514
Li 1.79888 -0.703359 -1.79153
Li -0.156222 -2.78399 -1.03162
Li 1.09949 2.00096 -0.986116
Li 1.14234 1.17717 1.81204
Li -0.542764 0.181638 -0.195919
9
 Atoms. Timestep: 2700
Li -2.92543 0.492469 1.41942
Li -1.38519 -2.25855 1.11631
Li -1.43527 2.37983 0.299756
Li 1.46231 -1.59811 0.960651
Li 1.49463 -0.561827 -1.95413
Li 0.136535 -2.6563 -1.24284
Li 1.18426 2.13256 -1.05249
Li 1.16873 1.52474 1.51878
Li -0.689121 -0.104299 -0.0630747
9
 Atoms. Timestep: 2750
Li -2.7357 0.240519 1.46421
Li -1.35102 -2.28532 1.58994
Li -1.29167 2.38318 0.0407505
Li 1.27824 -1.82947 1.20858
Li 1.3398 -0.227333 -2.19364
Li 0.191027 -2.72779 -1.48576
Li 0.974749 2.19668 -1.34372
Li 1.07026 1.50726 1.35373
Li -0.332292 -0.223388 -0.184779
9
 Atoms. Timestep: 2800
Li -2.38179 0.0908561 1.37367
Li -1.3928 -2.287 1.99608
Li -1.33763 2.47331 0.000584937
Li 1.30707 -2.02719 1.2912
Li 1.43775 -0.405076 -2.71955
Li 0.0729745 -2.64748 -1.40684
Li 0.842264 2.45532 -1.72138
Li 1.06281 1.3519 1.32163
Li -0.334975 -0.287172 -0.240381
9
 Atoms. Timestep: 2850
Li -2.28347 0.335858 1.3817
Li -1.25822 -2.35274 2.2598
Li -1.3012 2.39076 0.073738
Li 1.26863 -2.07369 1.13601
Li 1.34567 -0.590894 -2.9467
Li -0.0380061 -2.70305 -1.28268
Li 0.75764 2.21822 -1.93103
Li 1.1595 1.29376 1.19991
Li -0.251383 -0.0965798 -0.513258
9
 Atoms. Timestep: 2900
Li -2.20475 0.304842 1.5579
Li -1.13657 -2.17175 2.327
Li -0.9585 2.55104 -0.00287916
Li 1.1728 -1.83159 0.82861
Li 1.0939 -0.785891 -2.88238
Li -0.208864 -2.83477 -1.25132
Li 0.724375 1.85722 -2.05747
Li 1.35316 1.30545 1.05548
Li -0.330094 -0.227583 -0.642944
9
 Atoms. Timestep: 2950
Li -2.04089 0.506603 1.65505
Li -0.978817 -1.93219 2.23248
Li -0.650098 2.57741 0.0043153
Li 1.41229 -1.56489 0.747431
Li 0.845723 -1.08723 -2.70265
Li -0.526544 -3.008 -1.3443
Li 0.870098 1.64824 -2.19744
Li 1.48386 1.10821 0.675186
Li -0.828213 -0.277515 -0.481548
9
 Atoms. Timestep: 3000
Li -2.08081 1.13774 1.99409
Li -0.738528 -1.69014 1.91739
Li -0.569771 2.51432 -0.0337787
Li 1.55439 -1.75253 0.530722
Li 0.729966 -1.34284 -2.42548
Li -0.93999 -3.0911 -1.14918
Li 0.832682 1.29913 -2.1198
Li 1.71264 0.953111 0.240033
Li -0.861003 -0.182038 -0.584087
9
 Atoms. Timestep: 3050
Li -1.93987 1.5836 2.0512
Li -0.709838 -1.42542 1.76078
Li -0.521683 2.53428 -0.0737596
Li 1.5583 -2.17473 0.0707469
Li 0.824013 -1.7108 -2.24996
Li -1.35103 -2.93028 -0.651257
Li 0.552038 1.17657 -2.45176
Li 2.02768 0.773953 0.271178
Li -0.781018 -0.0270753 -0.436978
9
 Atoms. Timestep: 3100
Li -1.73451 1.7229 1.92547
Li -0.649566 -1.41776 2.12096
Li -0.173574 2.8272 -0.237529
Li 1.47393 -2.48163 0.33417
Li 0.564348 -1.75109 -2.60835
Li -1.51972 -2.4831 -0.14578
Li 0.410159 1.09691 -2.69343
Li 1.92439 0.430556 0.0921274
Li -0.652057 -0.107534 -0.43384
9
 Atoms. Timestep: 3150
Li -1.43679 1.64688 1.59873
Li -0.461151 -1.1347 2.43034
Li 0.267216 2.79507 -0.473248
Li 1.02526 -2.4432 0.531325
Li 0.236987 -1.62757 -2.586
Li -1.71239 -2.55364 0.0923103
Li 0.376346 1.05234 -2.68029
Li 2.03866 0.114657 -0.202893
Li -0.738795 0.101763 -0.155034
9
 Atoms. Timestep: 3200
Li -1.30985 1.97069 1.77541
Li -0.428657 -0.647275 2.50271
Li 0.671566 2.57274 -0.418103
Li 0.703183 -2.19294 0.475098
Li -0.0220041 -1.72212 -2.19852
Li -1.96199 -2.58285 0.214217
Li 0.369966 0.979423 -2.53083
Li 2.20022 -0.0864929 -0.608189
Li -0.704474 -0.154149 -0.332208
9
 Atoms. Timestep: 3250
Li -1.16718 2.25199 1.7539
Li -0.474976 -0.282808 2.54053
Li 0.977738 2.29892 0.0712721
Li 0.827029 -2.12747 0.507358
Li -0.0369836 -2.20396 -2.06986
Li -2.24289 -2.43764 0.192472
Li 0.339458 0.745241 -2.68181
Li 2.03339 -0.182335 -0.993692
Li -0.838808 0.317449 -0.0165968
9
 Atoms. Timestep: 3300
Li -1.19719 2.67706 1.76674
Li -0.429662 -0.286029 2.71237
Li 1.35906 1.95134 0.403988
Li 0.709006 -1.97319 0.804796
Li -0.0303615 -2.26688 -1.88402
Li -2.09157 -2.02735 0.0351729
Li -0.122901 0.542367 -2.78829
Li 1.97926 -0.325198 -0.991192
Li -0.876664 0.369473 -0.262317
9
 Atoms. Timestep: 3350
Li -1.16055 2.69571 1.60837
Li -0.563824 -0.0545554 2.62595
Li 1.53327 1.68878 0.781314
Li 0.549298 -1.84861 0.965185
Li 0.0716322 -2.05829 -1.7386
Li -2.03006 -1.87933 -0.0599932
Li -0.498555 0.247559 -2.86074
Li 1.84021 -0.382076 -0.998001
Li -0.568623 0.554761 0.00267771
9
 Atoms. Timestep: 3400
Li -1.10386 2.64626 1.45348
Li -0.8416 0.326028 2.69434
Li 1.86023 1.73378 1.40886
Li 0.599469 -1.83458 0.920054
Li 0.0797844 -2.3302 -1.78129
Li -2.18103 -1.83379 -0.0330659
Li -0.809593 0.173168 -2.72477
Li 1.99397 -0.0334605 -0.933009
Li -0.550434 0.418262 -0.150949
9
 Atoms. Timestep: 3450
Li -1.04567 2.77832 1.19368
Li -0.944515 0.235672 2.65152
Li 1.72927 1.67236 1.81594
Li 0.689109 -1.76042 0.936061
Li 0.131997 -2.3454 -1.71813
Li -2.10622 -1.78009 -0.0840243
Li -1.05876 0.0288197 -2.71851
Li 2.07465 0.261176 -0.794412
Li -0.539814 0.455045 0.061318
9
 Atoms. Timestep: 3500
Li -1.0349 3.05398 1.1436
Li -0.940747 -0.0369516 2.62076
Li 1.12561 1.466 1.85739
Li 0.842674 -1.67731 1.05446
Li 0.333583 -2.08146 -1.62116
Li -1.90091 -1.74363 -0.170455
Li -1.24787 -0.162035 -2.4891
Li 2.10065 0.419185 -0.542268
Li -0.447954 0.547069 -0.0910253
9
 Atoms. Timestep: 3550
Li -1.16199 3.21541 1.15544
Li -1.19619 -0.548151 2.50241
Li 0.872636 1.44835 1.88591
Li 0.933139 -1.36099 1.14009
Li 0.918496 -1.75386 -1.53817
Li -1.73986 -1.80128 -0.0973848
Li -1.64193 -0.276894 -2.50683
Li 2.35761 0.382674 -0.341268
Li -0.587982 0.662171 -0.1186
9
 Atoms. Timestep: 3600
Li -1.36408 3.07792 1.10116
Li -1.66854 -0.938028 2.31819
Li 0.953981 1.53447 2.05726
Li 0.963673 -1.18212 1.27354
Li 1.20326 -1.26716 -1.60209
Li -1.42375 -2.00063 -0.092451
Li -1.87852 -0.493231 -2.45096
Li 2.57301 0.581996 -0.165526
Li -0.65254 0.767841 -0.158757
9
 Atoms. Timestep: 3650
Li -1.56772 2.76078 1.1063
Li -1.95251 -1.04467 2.15775
Li 0.84476 1.62408 1.94825
Li 0.865337 -1.09645 1.33759
Li 1.04621 -0.808297 -1.6524
Li -0.880216 -2.24978 -0.35945
Li -1.84671 -0.612157 -2.18151
Li 2.67661 1.00558 0.0908103
Li -0.49485 0.539298 -0.101659
9
 Atoms. Timestep: 3700
Li -1.9791 2.49003 1.21691
Li -1.89082 -1.03935 1.69715
Li 0.638273 1.85641 2.00143
Li 1.09449 -1.16117 1.50389
Li 1.13493 -0.521562 -1.83121
Li -0.422902 -2.64267 -0.390503
Li -1.7565 -0.542408 -2.09687
Li 2.55861 1.13574 0.144814
Li -0.668981 0.502384 0.0283902
9
 Atoms. Timestep: 3750
Li -2.58284 2.31311 1.45289
Li -1.81033 -1.35712 1.42905
Li 0.431675 2.07031 2.09602
Li 1.23381 -1.05007 1.45453
Li 1.2169 -0.423494 -1.91853
Li -0.117606 -2.56083 -0.45104
Li -1.59356 -0.69781 -2.08874
Li 2.23556 1.02232 0.0981952
Li -0.257202 0.645077 -0.0011792
9
 Atoms. Timestep: 3800
Li -2.87899 1.86315 1.58411
Li -1.62509 -1.57559 1.22977
Li 0.217655 2.30325 2.13243
Li 1.21099 -1.02898 1.45449
Li 1.3497 -0.572053 -2.14368
Li 0.164547 -2.34795 -0.594456
Li -1.44221 -0.821244 -1.97764
Li 2.46102 1.15669 0.109923
Li -0.625102 0.801854 -0.0427504
9
 Atoms. Timestep: 3850
Li -2.88119 1.24403 1.62184
Li -1.48552 -1.50528 1.10731
Li 0.0169249 2.45215 1.97205
Li 1.09878 -0.7548 1.45557
Li 1.55296 -0.449751 -2.26339
Li 0.490004 -2.64285 -0.713378
Li -1.55081 -0.792438 -2.02167
Li 2.44094 1.19787 0.0795895
Li -0.751158 0.794427 0.101848
9
 Atoms. Timestep: 3900
Li -2.78019 0.586049 1.68393
Li -1.52647 -1.62547 0.968789
Li -0.0650146 2.62977 1.82827
Li 1.02711 -0.658155 1.44364
Li 1.48343 -0.328643 -2.08781
Li 0.527719 -2.58691 -0.79355
Li -1.38249 -0.916753 -1.86421
Li 2.18551 1.2714 -0.0909586
Li -0.424888 0.899495 -0.225174
9
 Atoms. Timestep: 3950
Li -2.55988 0.345232 1.6767
Li -1.47833 -1.96274 0.716593
Li -0.0723181 2.71218 1.61349
Li 0.969936 -0.822905 1.39892
Li 1.22472 -0.300554 -2.00049
Li 0.650524 -2.58769 -0.639837
Li -1.40821 -1.09364 -1.88488
Li 2.33308 1.64973 -0.102817
Li -0.493603 1.04078 -0.422739
9
 Atoms. Timestep: 4000
Li -2.2019 0.431564 1.59883
Li -1.61129 -2.22645 0.70977
Li 0.0316027 2.75936 1.41149
Li 0.832667 -0.68475 1.08005
Li 1.18072 -0.251496 -1.97091
Li 1.04908 -2.92491 -0.640411
Li -1.58982 -1.1409 -1.94977
Li 2.33713 1.83758 0.00593886
Li -0.742025 0.892336 -0.393973
9
 Atoms. Timestep: 4050
Li -1.98017 0.424035 1.87675
Li -1.48299 -2.20543 0.666297
Li 0.0530146 2.74441 1.2435
Li 0.749945 -0.636483 0.762398
Li 1.24393 -0.433452 -1.82037
Li 1.02488 -2.93871 -0.715042
Li -1.52892 -1.30635 -1.84654
Li 2.09414 1.61618 -0.0132178
Li -0.776674 1.16219 -0.767964
9
 Atoms. Timestep: 4100
Li -1.52429 0.430675 1.85506
Li -1.44825 -2.19804 0.904435
Li -0.181836 2.73753 1.27424
Li 0.665922 -0.607447 0.875644
Li 1.36973 -0.610994 -2.04832
Li 0.603015 -2.94261 -0.781298
Li -1.17131 -1.31484 -1.76308
Li 2.03052 1.29912 -0.308931
Li -0.852152 1.40734 -1.01669
9
 Atoms. Timestep: 4150
Li -1.51129 0.472846 1.71733
Li -1.71873 -2.29646 1.24539
Li -0.136602 2.81285 1.18837
Li 0.899279 -0.788195 0.721572
Li 1.54576 -0.734208 -2.3882
Li 0.297908 -3.19785 -0.651922
Li -1.22006 -1.04913 -1.61506
Li 2.01284 1.46942 -0.584701
Li -0.606749 1.34136 -0.939285
9
 Atoms. Timestep: 4200
Li -1.64632 0.456111 1.38289
Li -1.74374 -2.22532 1.37937
Li 0.218525 3.13945 1.21623
Li 0.946763 -0.951209 0.214892
Li 1.5149 -0.849164 -2.3838
Li -0.0606238 -3.34903 -0.495242
Li -1.37067 -1.19589 -1.2772
Li 2.26594 1.58441 -0.732938
Li -0.51934 1.31806 -0.791267
9
 Atoms. Timestep: 4250
Li -1.80783 0.532539 1.22406
Li -1.62127 -2.2072 1.50913
Li 0.603377 3.27453 1.13278
Li 0.820383 -0.844889 0.302544
Li 1.29585 -0.854539 -2.52554
Li -0.352022 -3.70928 -0.442312
Li -1.60972 -1.13381 -0.978832
Li 2.49169 1.44862 -0.769462
Li -0.202645 1.39179 -0.991328
9
 Atoms. Timestep: 4300
Li -1.8363 0.732884 1.10831
Li -1.39918 -2.15152 1.77578
Li 0.939652 3.08986 0.76083
Li 0.599652 -0.78039 0.664559
Li 0.925916 -0.711086 -2.55034
Li -0.633631 -3.75294 -0.477521
Li -1.67125 -0.977398 -0.963074
Li 2.68321 1.08028 -0.681802
Li -0.0092007 1.41349 -1.09623
9
 Atoms. Timestep: 4350
Li -1.70068 0.979065 1.08421
Li -1.36817 -2.02172 1.94974
Li 1.34904 2.8451 0.444305
Li 0.641243 -0.545352 0.659097
Li 0.66787 -0.772282 -2.3853
Li -0.966248 -3.38824 -0.495934
Li -1.5356 -0.971818 -0.991933
Li 2.72432 0.570925 -0.502643
Li -0.261676 1.36436 -1.01661
9
 Atoms. Timestep: 4400
Li -1.71723 1.01258 1.38677
Li -1.45936 -1.72493 1.93295
Li 1.82114 2.64858 0.319865
Li 0.465483 -0.577589 0.702046
Li 0.864818 -1.06598 -2.23529
Li -1.09917 -3.35861 -0.382024
Li -1.89421 -0.579263 -0.813442
Li 2.84145 0.235505 -0.63939
Li -0.347851 1.6495 -1.21211
9
 Atoms. Timestep: 4450
Li -1.66263 1.15448 1.66309
Li -1.90335 -1.59429 1.94364
Li 2.06029 2.3447 0.177639
Li 0.466528 -0.458516 0.461261
Li 0.836319 -1.28657 -1.89948
Li -1.13754 -3.04391 -0.270387
Li -2.08377 -0.344287 -0.635398
Li 2.97751 0.01817 -0.877266
Li -0.174233 1.67983 -1.10172
9
 Atoms. Timestep: 4500
Li -1.47778 1.37185 1.72532
Li -2.27201 -1.40632 1.93511
Li 2.23096 2.12237 0.219381
Li 0.488834 -0.381669 0.882275
Li 0.577345 -1.60485 -2.07128
Li -1.01625 -2.52648 -0.279186
Li -2.0897 -0.175576 -0.52026
Li 3.02606 -0.21192 -1.02496
Li -0.198377 1.54586 -0.943763
9
 Atoms. Timestep: 4550
Li -1.28711 1.51387 1.61436
Li -2.40961 -1.07393 1.98177
Li 2.26338 1.90255 0.391756
Li 0.572395 -0.570255 1.14849
Li 0.595814 -1.45226 -2.3347
Li -0.957325 -2.47707 -0.00445776
Li -2.33951 0.0577742 -0.479023
Li 2.7273 -0.482966 -1.09197
Li -0.0127739 1.5947 -0.815284
9
 Atoms. Timestep: 4600
Li -1.13573 1.59601 1.57442
Li -2.26613 -0.78061 2.07964
Li 2.38474 1.63589 0.769382
Li 0.679285 -0.521772 1.12209
Li 0.294967 -1.21086 -2.51777
Li -1.06941 -2.368 0.0935671
Li -2.34783 0.120458 -0.5785
Li 2.42047 -0.499057 -0.817724
Li 0.0773065 1.3156 -0.832639
9
 Atoms. Timestep: 4650
Li -0.98101 1.79438 1.48732
Li -2.00444 -0.724304 2.15673
Li 2.28207 1.60679 1.21615
Li 0.442452 -0.546272 1.39078
Li -0.200094 -0.979489 -2.44849
Li -1.18867 -2.21191 -0.0894966
Li -2.1593 0.116574 -0.615786
Li 2.38429 -0.570558 -0.842942
Li 0.356992 1.0549 -0.920189
9
 Atoms. Timestep: 4700
Li -0.892773 1.96857 1.33642
Li -2.14982 -0.757466 2.2016
Li 1.88491 1.6311 1.49087
Li 0.645281 -0.72286 1.37376
Li -0.575608 -0.958627 -2.40691
Li -1.10783 -2.39391 -0.206062
Li -2.02672 0.427336 -0.516976
Li 2.46853 -0.791035 -0.827015
Li 0.597661 1.34942 -0.740035
9
 Atoms. Timestep: 4750
Li -0.994362 2.0494 1.64982
Li -2.12113 -0.72581 1.95284
Li 1.65544 1.82656 1.86668
Li 0.593413 -0.901163 1.11504
Li -0.545975 -0.762155 -2.40258
Li -1.12048 -2.42824 -0.0782445
Li -1.82792 0.422866 -0.374691
Li 2.39764 -0.8539 -0.786973
Li 0.741038 1.283 -0.959768
9
 Atoms. Timestep: 4800
Li -1.30626 1.89813 1.89839
Li -2.02871 -0.820625 2.05821
Li 1.4831 1.8601 1.89488
Li 0.486657 -0.54045 1.11321
Li -0.117894 -0.784417 -2.39835
Li -1.41348 -2.41982 -0.273443
Li -1.659 0.396145 -0.444007
Li 2.47294 -0.891581 -1.00279
Li 0.821433 1.30623 -0.701019
9
 Atoms. Timestep: 4850
Li -1.58075 1.56997 1.93529
Li -2.06274 -1.05613 2.2735
Li 1.32168 2.04512 1.99997
Li 0.428503 -0.60466 1.04863
Li 0.323557 -0.94643 -2.32527
Li -1.58571 -2.21413 -0.530648
Li -1.65075 0.388119 -0.483058
Li 2.53347 -0.833325 -0.997359
Li 1.00221 1.6775 -0.736908
9
 Atoms. Timestep: 4900
Li -1.60761 1.36944 1.95083
Li -1.99382 -1.46117 2.18569
Li 0.969274 2.20715 2.06344
Li 0.359582 -0.774033 0.779369
Li 0.225125 -0.95774 -2.18944
Li -1.59787 -2.21209 -0.642823
Li -1.43414 0.640519 -0.70511
Li 2.85386 -0.530023 -0.519612
Li 0.975723 1.69447 -0.824822
9
 Atoms. Timestep: 4950
Li -1.73748 0.955333 1.85697
Li -1.80603 -1.7612 1.92307
Li 0.684071 2.27436 1.7777
Li 0.356227 -0.770659 0.592752
Li 0.493801 -0.825013 -2.01955
Li -1.68721 -2.21008 -0.637504
Li -1.5941 0.770945 -0.914548
Li 2.96606 -0.123048 -0.0512107
Li 1.1238 1.54846 -0.635578
9
 Atoms. Timestep: 5000
Li -1.93992 0.596794 1.63295
Li -1.67653 -2.15376 2.01881
Li 0.368165 2.36182 1.74404
Li 0.360056 -0.591218 0.781365
Li 0.859667 -0.748485 -2.09864
Li -1.68379 -2.04359 -1.01611
Li -1.65107 0.63623 -1.01501
Li 3.24898 0.00701315 0.438999
Li 0.987349 1.61755 -0.903499
9
 Atoms. Timestep: 5050
Li -2.15209 0.4232 1.53428
Li -1.50743 -2.51647 1.98197
Li -0.0711269 2.22253 1.54744
Li 0.44498 -0.401999 0.697645
Li 1.01497 -0.889196 -2.0302
Li -1.44815 -2.05468 -1.22075
Li -1.38526 0.678434 -1.22015
Li 3.14111 0.208213 0.785789
Li 0.929176 1.78888 -0.88399
9
 Atoms. Timestep: 5100
Li -2.33995 0.043454 1.27479
Li -1.23596 -2.4887 1.66587
Li -0.52172 2.09076 1.29041
Li 0.25236 -0.508821 0.6052
Li 1.10152 -0.892354 -1.87039
Li -1.13756 -2.21844 -1.1001
Li -1.24965 0.712207 -1.26649
Li 2.80013 0.528045 0.929932
Li 1.4032 1.93837 -0.782176
9
 Atoms. Timestep: 5150
Li -2.61846 -0.357848 0.839643
Li -1.15436 -2.68675 1.69145
Li -0.813812 2.02929 0.882507
Li 0.387751 -0.446389 0.740053
Li 1.33787 -0.659349 -1.88909
Li -1.00524 -2.21191 -1.08185
Li -1.01579 0.649263 -1.30263
Li 2.65629 0.61135 1.28793
Li 1.40979 2.00933 -0.889013
9
 Atoms. Timestep: 5200
Li -2.58037 -0.616441 0.295426
Li -1.18462 -2.87797 1.91069
Li -1.01452 2.08108 0.692198
Li 0.314383 -0.550147 0.7507
Li 1.60183 -0.518687 -1.83688
Li -0.88476 -2.07116 -1.13778
Li -0.996589 0.483398 -1.69704