# LAMMPS data file for 3 Li atoms

3 atoms
1 atom types

-5.000000 9.000000 xlo xhi
-5.000000 5.000000 ylo yhi
-5.000000 5.000000 zlo zhi

Masses

1 6.94

Atoms

1 1 0.000000 0.000000 0.000000
2 1 2.000000 0.000000 0.000000
3 1 4.000000 0.000000 0.000000
