3
 Atoms. Timestep: 50
Li -0.779843 0.0115169 0.00484719
Li 2.00239 -0.0231203 -0.00971098
Li 4.73244 0.054922 0.00486379
3
 Atoms. Timestep: 100
Li -0.758284 0.0270799 0.0113577
Li 1.9273 -0.0616694 -0.0235516
Li 4.59306 0.263525 0.0121939
3
 Atoms. Timestep: 150
Li -0.914067 0.0497363 0.0203814
Li 1.85554 -0.136739 -0.0425988
Li 4.48866 0.635339 0.0222174
3
 Atoms. Timestep: 200
Li -1.08048 0.0732157 0.0293233
Li 1.79449 -0.234973 -0.0625552
Li 4.26817 1.14113 0.0332319
3
 Atoms. Timestep: 250
Li -1.08149 0.0840393 0.0335493
Li 1.7195 -0.290656 -0.0744179
Li 3.81133 1.69869 0.0408686
3
 Atoms. Timestep: 300
Li -0.978265 0.0903718 0.034839
Li 1.74189 -0.263901 -0.0770388
Li 3.10512 2.22427 0.0421999
3
 Atoms. Timestep: 350
Li -0.872194 0.112781 0.0372262
Li 1.92889 -0.182833 -0.0755136
Li 2.22424 2.6864 0.0382874
3
 Atoms. Timestep: 400
Li -0.660715 0.165263 0.0369078
Li 2.15358 0.00391949 -0.0650937
Li 1.23414 2.98017 0.0281859
3
 Atoms. Timestep: 450
Li -0.345698 0.306258 0.0337492
Li 2.36091 0.339055 -0.0456425
Li 0.230413 2.96723 0.0118932
3
 Atoms. Timestep: 500
Li -0.16099 0.210512 0.035164
Li 2.64975 0.753666 -0.0251998
Li -0.618557 3.0096 -0.00996421
3
 Atoms. Timestep: 550
Li 0.0522968 0.0142413 0.0344784
Li 2.83988 1.13571 -0.00224719
Li -1.26577 3.05842 -0.0322312
3
 Atoms. Timestep: 600
Li 0.340261 0.00209295 0.0268629
Li 2.84765 1.39529 0.0223211
Li -1.6575 2.90336 -0.049184
3
 Atoms. Timestep: 650
Li 0.561364 0.0922797 0.0143059
Li 2.79086 1.55576 0.0455823
Li -1.7643 2.59735 -0.0598882
3
 Atoms. Timestep: 700
Li 0.463097 0.1488 -0.00449499
Li 2.88518 1.73607 0.0675954
Li -1.55428 2.16225 -0.0631004
3
 Atoms. Timestep: 750
Li 0.586193 0.0195338 -0.0154216
Li 2.87895 1.76873 0.0821703
Li -1.33178 1.93229 -0.0667487
3
 Atoms. Timestep: 800
Li 1.04194 -0.410676 -0.0146589
Li 2.7627 1.656 0.0881059
Li -1.223 2.04389 -0.073447
3
 Atoms. Timestep: 850
Li 1.21749 -0.846729 -0.0220961
Li 2.68643 1.57338 0.0924463
Li -0.796909 2.05705 -0.0703502
3
 Atoms. Timestep: 900
Li 1.23922 -1.12547 -0.0294967
Li 2.49593 1.39714 0.0853699
Li -0.0626202 1.96787 -0.0558732
3
 Atoms. Timestep: 950
Li 1.12778 -1.18938 -0.0355558
Li 2.97983 0.93397 0.111911
Li 0.131059 1.9502 -0.0763553
3
 Atoms. Timestep: 1000
Li 0.919466 -1.01379 -0.0393041
Li 3.63005 0.34179 0.141863
Li 0.216597 1.85927 -0.102559
3
 Atoms. Timestep: 1050
Li 0.781671 -0.754001 -0.029242
Li 3.98409 -0.296596 0.147371
Li 0.452831 1.80248 -0.118129
3
 Atoms. Timestep: 1100
Li 0.819585 -0.914142 0.00709342
Li 4.03962 -0.910649 0.131357
Li 0.706274 2.24289 -0.13845
3
 Atoms. Timestep: 1150
Li 0.95456 -0.892514 0.0428921
Li 3.81503 -1.43918 0.0991148
Li 1.01428 2.53966 -0.142007
3
 Atoms. Timestep: 1200
Li 1.06282 -0.673633 0.070438
Li 3.45544 -1.85752 0.05765
Li 1.34181 2.66581 -0.128088
3
 Atoms. Timestep: 1250
Li 0.929183 -0.192901 0.0846695
Li 3.21023 -2.21115 0.0120862
Li 1.65098 2.60574 -0.0967557
3
 Atoms. Timestep: 1300
Li 0.787545 0.172755 0.0925741
Li 2.83016 -2.3148 -0.0308346
Li 1.96367 2.54486 -0.0617395
3
 Atoms. Timestep: 1350
Li 0.576871 0.124894 0.106049
Li 2.32772 -2.12398 -0.0650231
Li 2.34448 2.72164 -0.041026
3
 Atoms. Timestep: 1400
Li 0.342736 0.265066 0.115191
Li 1.90657 -1.85994 -0.103459
Li 2.56861 2.7323 -0.0117322
3
 Atoms. Timestep: 1450
Li -0.0290504 0.781625 0.138258
Li 1.7505 -1.73997 -0.161524
Li 2.59742 2.57597 0.0232654
3
 Atoms. Timestep: 1500
Li -0.188734 1.21264 0.132597
Li 1.57527 -1.35795 -0.192821
Li 2.40063 2.27454 0.0602243
3
 Atoms. Timestep: 1550
Li -0.387605 1.3977 0.103837
Li 1.39944 -0.677106 -0.188212
Li 2.24806 1.91599 0.0843752
3
 Atoms. Timestep: 1600
Li -0.887947 1.46736 0.0812471
Li 1.17666 -0.447247 -0.234499
Li 2.4847 2.08458 0.153252
3
 Atoms. Timestep: 1650
Li -1.22697 1.46968 0.0571427
Li 0.943644 -0.487555 -0.300048
Li 2.64403 2.51968 0.242905
3
 Atoms. Timestep: 1700
Li -1.34439 1.31552 0.0193004
Li 0.801251 -0.320374 -0.313046
Li 2.59228 2.80647 0.293745
3
 Atoms. Timestep: 1750
Li -1.46407 1.17894 0.00274883
Li 0.95689 -0.1428 -0.307966
Li 2.36582 2.94877 0.305217
3
 Atoms. Timestep: 1800
Li -1.51657 1.03138 -0.000159699
Li 1.33578 0.103546 -0.270324
Li 1.98139 2.90583 0.270484
3
 Atoms. Timestep: 1850
Li -1.27635 0.802378 -0.0113833
Li 1.66806 0.288256 -0.218229
Li 1.48545 2.87646 0.229612
3
 Atoms. Timestep: 1900
Li -0.73255 0.572072 -0.022395
Li 1.91757 0.0770675 -0.214213
Li 0.896119 3.12168 0.236608
3
 Atoms. Timestep: 1950
Li -0.313694 0.448781 -0.00436835
Li 2.39995 -0.0633136 -0.195341
Li 0.310415 3.08174 0.19971
3
 Atoms. Timestep: 2000
Li -0.0484273 0.200938 0.0159671
Li 2.99192 -0.161502 -0.165855
Li -0.143126 3.03932 0.149888
3
 Atoms. Timestep: 2050
Li 0.353775 -0.0660855 0.0249208
Li 3.37092 -0.208749 -0.114354
Li -0.461545 2.90829 0.0894336
3
 Atoms. Timestep: 2100
Li 0.818982 -0.180806 0.0288023
Li 3.53798 -0.224328 -0.0487142
Li -0.604578 2.56784 0.019912
3
 Atoms. Timestep: 2150
Li 0.997058 -0.145354 0.0335246
Li 3.77841 -0.219526 0.0163623
Li -0.54133 2.06403 -0.0498869
3
 Atoms. Timestep: 2200
Li 1.20111 -0.360149 0.0526352
Li 4.01337 -0.195177 0.0771597
Li -0.538955 1.82977 -0.129795
3
 Atoms. Timestep: 2250
Li 1.42923 -0.700862 0.0752358
Li 4.13067 -0.148543 0.131565
Li -0.512945 1.76646 -0.206801
3
 Atoms. Timestep: 2300
Li 1.40062 -0.872175 0.0770678
Li 4.18063 -0.0782678 0.176268
Li -0.257224 1.60088 -0.253336
3
 Atoms. Timestep: 2350
Li 1.3058 -0.897204 0.0689821
Li 4.01977 -0.0193265 0.203518
Li 0.163612 1.40805 -0.2725
3
 Atoms. Timestep: 2400
Li 1.31447 -1.20855 0.109388
Li 3.69227 0.0541698 0.209878
Li 0.525944 1.60405 -0.319266
3
 Atoms. Timestep: 2450
Li 1.08439 -1.47487 0.129652
Li 3.34586 0.250554 0.191929
Li 1.02298 1.75044 -0.321581
3
 Atoms. Timestep: 2500
Li 0.795381 -1.47056 0.120091
Li 3.23737 0.168173 0.242349
Li 1.22519 2.01641 -0.362439
3
 Atoms. Timestep: 2550
Li 0.570214 -1.19029 0.092763
Li 3.30001 -0.234819 0.352919
Li 1.09158 2.42408 -0.445682
3
 Atoms. Timestep: 2600
Li 0.406438 -0.708452 0.0535548
Li 3.15266 -0.568648 0.405627
Li 1.02739 2.63722 -0.459182
3
 Atoms. Timestep: 2650
Li 0.21738 -0.0610141 -0.0106567
Li 2.95194 -0.810292 0.419445
Li 0.989437 2.64299 -0.408789
3
 Atoms. Timestep: 2700
Li -0.0151555 0.334976 -0.0331962
Li 2.64019 -0.92684 0.384351
Li 1.08364 2.79663 -0.351155
3
 Atoms. Timestep: 2750
Li -0.267543 0.296359 0.0132664
Li 2.19541 -0.886212 0.297829
Li 1.33951 3.21925 -0.311095
3
 Atoms. Timestep: 2800
Li -0.554191 0.411013 0.0346132
Li 1.88849 -0.806674 0.197317
Li 1.5307 3.41222 -0.23193
3
 Atoms. Timestep: 2850
Li -0.879772 0.638108 0.0345924
Li 1.75772 -0.701315 0.0926521
Li 1.65064 3.40348 -0.127244
3
 Atoms. Timestep: 2900
Li -0.981746 0.826426 0.0305807
Li 1.57467 -0.448148 -0.0212897
Li 1.68737 3.20091 -0.00929098
3
 Atoms. Timestep: 2950
Li -0.935498 1.0266 0.0261392
Li 1.46315 -0.0685864 -0.133457
Li 1.60835 2.76 0.107318
3
 Atoms. Timestep: 3000
Li -0.995876 1.33641 0.0379362
Li 1.69121 -0.146788 -0.305903
Li 1.40901 2.55886 0.267967
3
 Atoms. Timestep: 3050
Li -1.04982 1.43645 0.0200171
Li 1.9073 -0.569756 -0.503092
Li 1.32863 2.80312 0.483075
3
 Atoms. Timestep: 3100
Li -0.999847 1.35185 -0.0206753
Li 2.05936 -0.789154 -0.619638
Li 1.31483 2.92599 0.640313
3
 Atoms. Timestep: 3150
Li -0.765114 1.16614 -0.0571847
Li 2.16498 -0.853035 -0.661656
Li 1.25505 2.9056 0.718841
3
 Atoms. Timestep: 3200
Li -0.429743 0.810622 -0.121955
Li 2.19759 -0.756797 -0.624551
Li 1.23974 2.82554 0.746506
3
 Atoms. Timestep: 3250
Li -0.11215 0.336733 -0.203786
Li 2.2324 -0.536847 -0.519331
Li 1.28713 2.6948 0.723117
3
 Atoms. Timestep: 3300
Li -0.316199 0.135757 -0.165246
Li 2.82431 -0.417175 -0.425231
Li 1.3182 2.37299 0.590477
3
 Atoms. Timestep: 3350
Li -0.388094 -0.0504898 -0.108843
Li 3.23353 -0.144759 -0.25547
Li 1.38994 1.89321 0.364313
3
 Atoms. Timestep: 3400
Li -0.474926 -0.386158 -0.0857953
Li 3.6082 0.0475912 -0.0833636
Li 1.47329 1.67936 0.169159
3
 Atoms. Timestep: 3450
Li -0.47104 -0.674149 -0.0594284
Li 4.0633 0.0475716 0.051399
Li 1.32252 1.6708 0.00802943
3
 Atoms. Timestep: 3500
Li -0.336555 -0.812167 -0.0257619
Li 4.25809 0.113763 0.178288
Li 1.21804 1.52632 -0.152526
3
 Atoms. Timestep: 3550
Li -0.17019 -0.906846 0.0142888
Li 4.18383 0.226815 0.276984
Li 1.2528 1.38588 -0.291273
3
 Atoms. Timestep: 3600
Li -0.0415691 -1.04774 0.0682386
Li 3.84165 0.367833 0.329799
Li 1.48765 1.36527 -0.398038
3
 Atoms. Timestep: 3650
Li 0.166914 -1.0401 0.107219
Li 3.70646 0.316698 0.477205
Li 1.32968 1.49023 -0.584423
3
 Atoms. Timestep: 3700
Li 0.462584 -0.87954 0.132932
Li 3.54788 0.162237 0.625029
Li 1.00887 1.66093 -0.757961
3
 Atoms. Timestep: 3750
Li 0.789857 -0.714341 0.190581
Li 3.11984 0.0417771 0.652047
Li 0.840469 1.87519 -0.842627
3
 Atoms. Timestep: 3800
Li 0.350489 -0.752189 0.101186
Li 3.25746 0.228703 0.710016
Li 0.806961 2.04869 -0.811202
3
 Atoms. Timestep: 3850
Li -0.101378 -0.61931 -0.035759
Li 3.25817 0.474681 0.660557
Li 0.880492 2.0332 -0.624798
3
 Atoms. Timestep: 3900
Li -0.429514 -0.355247 -0.165223
Li 3.05186 0.693278 0.511089
Li 1.02132 1.92929 -0.345866
3
 Atoms. Timestep: 3950
Li -0.718824 -0.160647 -0.257945
Li 3.21053 0.54714 0.511923
Li 0.769571 2.24877 -0.253978
3
 Atoms. Timestep: 4000
Li -0.900776 0.0628844 -0.320471
Li 3.24294 0.37971 0.465668
Li 0.574132 2.52462 -0.145197
3
 Atoms. Timestep: 4050
Li -0.948198 0.336296 -0.35002
Li 3.09085 0.260137 0.358519
Li 0.489397 2.64428 -0.00849862
3
 Atoms. Timestep: 4100
Li -0.938693 0.494814 -0.362061
Li 2.77138 0.199967 0.208341
Li 0.594771 2.74279 0.15372
3
 Atoms. Timestep: 4150
Li -0.819993 0.55296 -0.347819
Li 2.26497 0.240026 0.0315836
Li 0.870825 2.75203 0.316236
3
 Atoms. Timestep: 4200
Li -0.672021 0.615183 -0.299556
Li 1.83322 0.196982 -0.164777
Li 1.14268 2.74433 0.464333
3
 Atoms. Timestep: 4250
Li -1.0346 0.791472 -0.24915
Li 2.13375 -0.139032 -0.342314
Li 1.29235 2.81973 0.591464
3
 Atoms. Timestep: 4300
Li -1.09921 0.981042 -0.144141
Li 2.3106 -0.291868 -0.447079
Li 1.36031 2.60961 0.59122
3
 Atoms. Timestep: 4350
Li -0.921661 1.12388 -0.0133038
Li 2.36185 -0.251631 -0.463077
Li 1.39099 2.17686 0.476381
3
 Atoms. Timestep: 4400
Li -0.970562 0.984156 0.027929
Li 2.39861 -0.344032 -0.51019
Li 1.72329 2.10092 0.482261
3
 Atoms. Timestep: 4450
Li -0.854356 0.752839 0.0543612
Li 2.44275 -0.623716 -0.606536
Li 1.92117 2.26723 0.552175
3
 Atoms. Timestep: 4500
Li -0.448576 0.510188 0.0831131
Li 2.37297 -0.679099 -0.585622
Li 1.95648 2.20798 0.502509
3
 Atoms. Timestep: 4550
Li -0.00132024 0.247274 0.119227
Li 2.30982 -0.561985 -0.482769
Li 1.93111 2.00859 0.363542
3
 Atoms. Timestep: 4600
Li -0.34899 -0.00254408 0.267302
Li 2.84588 -0.650141 -0.507839
Li 2.06429 2.03715 0.240537
3
 Atoms. Timestep: 4650
Li -0.474595 -0.18201 0.37056
Li 3.23668 -0.606904 -0.456994
Li 2.0617 1.92069 0.0864338
3
 Atoms. Timestep: 4700
Li -0.378368 -0.260333 0.417999
Li 3.49513 -0.490626 -0.35202
Li 1.89319 1.7036 -0.0659788
3
 Atoms. Timestep: 4750
Li -0.137976 -0.276021 0.416234
Li 3.6779 -0.415061 -0.223082
Li 1.56772 1.54973 -0.193152
3
 Atoms. Timestep: 4800
Li -0.123065 -0.594231 0.482762
Li 3.66496 -0.266185 -0.0714502
Li 1.56911 1.71583 -0.411312
3
 Atoms. Timestep: 4850
Li -0.00804395 -0.82217 0.48785
Li 3.44132 -0.0514416 0.0868363
Li 1.58745 1.81589 -0.574686
3
 Atoms. Timestep: 4900
Li 0.288308 -0.840785 0.397342
Li 3.15773 0.0284753 0.293915
Li 1.39791 1.92469 -0.691257
3
 Atoms. Timestep: 4950
Li 0.535842 -0.692136 0.21055
Li 2.97133 0.0716316 0.521541
Li 1.0865 1.9737 -0.732092
3
 Atoms. Timestep: 5000
Li 0.204806 -0.618334 -0.0602214
Li 3.22606 0.35821 0.709086
Li 0.857009 1.90757 -0.648865
3
 Atoms. Timestep: 5050
Li -0.0857545 -0.679784 -0.249197
Li 3.1982 0.663901 0.747311
Li 0.835706 1.99021 -0.498114
3
 Atoms. Timestep: 5100
Li -0.282995 -0.669878 -0.386355
Li 2.98992 0.917062 0.680384
Li 0.89131 2.06385 -0.294029
3
 Atoms. Timestep: 5150
Li -0.343329 -0.46073 -0.471158
Li 3.03761 0.881903 0.708932
Li 0.56798 2.21314 -0.237775
3
 Atoms. Timestep: 5200
Li -0.313858 -0.212698 -0.503959
Li 2.94628 0.780435 0.656154
Li 0.330778 2.35434 -0.152195
3
 Atoms. Timestep: 5250
Li -0.228101 -0.149779 -0.498243
Li 2.59697 0.680447 0.484189
Li 0.35236 2.62423 0.014054
3
 Atoms. Timestep: 5300
Li -0.140016 -0.0375158 -0.453176
Li 2.17818 0.609583 0.264343
Li 0.514275 2.74525 0.188834
3
 Atoms. Timestep: 5350
Li -0.647781 0.016898 -0.549532
Li 2.48334 0.600867 0.231962
Li 0.63215 2.78109 0.31757
3
 Atoms. Timestep: 5400
Li -0.947793 0.225972 -0.54128
Li 2.66902 0.563432 0.164339
Li 0.750776 2.60531 0.376941
3
 Atoms. Timestep: 5450
Li -1.01915 0.532794 -0.43835
Li 2.77068 0.46379 0.065438
Li 0.812596 2.30949 0.372912
3
 Atoms. Timestep: 5500
Li -1.1396 0.631341 -0.376543
Li 2.89567 0.226777 -0.0635724
Li 0.980778 2.28176 0.440115
3
 Atoms. Timestep: 5550
Li -1.20044 0.615825 -0.316194
Li 2.91927 0.0102698 -0.182449
Li 1.25863 2.28226 0.498642
3
 Atoms. Timestep: 5600
Li -1.00927 0.636379 -0.192246
Li 2.82271 -0.135602 -0.270574
Li 1.45532 2.1273 0.462821
3
 Atoms. Timestep: 5650
Li -0.631249 0.633597 -0.0408548
Li 2.6919 -0.347065 -0.366788
Li 1.52951 2.03227 0.407643
3
 Atoms. Timestep: 5700
Li -0.392301 0.363721 0.0403354
Li 2.47621 -0.565811 -0.447036
Li 1.83538 2.2042 0.4067
3
 Atoms. Timestep: 5750
Li -0.105988 0.0942168 0.125007
Li 2.23588 -0.625171 -0.466582
Li 2.1035 2.23082 0.341575
3
 Atoms. Timestep: 5800
Li -0.295169 0.115241 0.356884
Li 2.60389 -0.691653 -0.561997
Li 2.20228 2.00916 0.205113
3
 Atoms. Timestep: 5850
Li -0.251159 0.202725 0.52576
Li 2.89104 -0.716031 -0.596942
Li 2.09351 1.73207 0.0711819
3
 Atoms. Timestep: 5900
Li -0.133045 0.203521 0.637242
Li 3.10611 -0.893994 -0.616055
Li 1.91278 1.76254 -0.0211871
3
 Atoms. Timestep: 5950
Li -0.157497 -0.00901063 0.739267
Li 3.15053 -0.889326 -0.541914
Li 1.96558 1.90038 -0.197353
3
 Atoms. Timestep: 6000
Li 0.000803917 -0.164832 0.716938
Li 3.00418 -0.667336 -0.379871
Li 1.94255 1.84487 -0.337067
3
 Atoms. Timestep: 6050
Li 0.339377 -0.245427 0.565637
Li 2.80904 -0.58612 -0.14659
Li 1.70582 1.93402 -0.419047
3
 Atoms. Timestep: 6100
Li 0.223265 -0.265585 0.49603
Li 3.07838 -0.682255 -0.0120939
Li 1.38436 2.2122 -0.483936
3
 Atoms. Timestep: 6150
Li 0.0930302 -0.192945 0.382137
Li 3.27346 -0.625187 0.0882919
Li 1.0887 2.30458 -0.470429
3
 Atoms. Timestep: 6200
Li 0.109313 -0.152938 0.233473
Li 3.2033 -0.432849 0.182538
Li 0.865717 2.33863 -0.416012
3
 Atoms. Timestep: 6250
Li 0.201001 -0.304813 0.118214
Li 2.88481 -0.129865 0.251403
Li 0.789138 2.47945 -0.369617
3
 Atoms. Timestep: 6300
Li 0.0349753 -0.410864 -0.0316884
Li 2.71685 0.315017 0.298268
Li 0.814342 2.43774 -0.26658
3
 Atoms. Timestep: 6350
Li -0.225207 -0.377221 -0.196637
Li 2.74184 0.688248 0.352393
Li 0.75668 2.31265 -0.155756
3
 Atoms. Timestep: 6400
Li -0.30863 -0.213973 -0.321773
Li 2.9451 0.668316 0.445145
Li 0.37989 2.41658 -0.123372
3
 Atoms. Timestep: 6450
Li -0.2832 -0.136927 -0.407515
Li 2.8893 0.643171 0.455148
Li 0.206504 2.56074 -0.0476327
3
 Atoms. Timestep: 6500
Li -0.127191 -0.101543 -0.438081
Li 2.56131 0.626723 0.376788
Li 0.241348 2.67376 0.0612933
3
 Atoms. Timestep: 6550
Li -0.113159 -0.0782663 -0.483946
Li 2.29119 0.697066 0.310702
Li 0.43562 2.63962 0.173244
3
 Atoms. Timestep: 6600
Li -0.500495 -0.11976 -0.617345
Li 2.58463 0.726248 0.37008
Li 0.546479 2.63561 0.247266
3
 Atoms. Timestep: 6650
Li -0.679777 0.0194608 -0.625963
Li 2.79246 0.632836 0.369129
Li 0.611665 2.49961 0.256833
3
 Atoms. Timestep: 6700
Li -0.703765 0.21898 -0.550609
Li 2.84656 0.516952 0.314827
Li 0.74478 2.25891 0.235782
3
 Atoms. Timestep: 6750
Li -0.771255 0.157213 -0.514006
Li 2.87959 0.281378 0.220627
Li 1.00002 2.34381 0.293379
3
 Atoms. Timestep: 6800
Li -0.667985 0.126421 -0.41287
Li 2.83416 0.00108894 0.0968888
Li 1.20472 2.40227 0.315981
3
 Atoms. Timestep: 6850
Li -0.319486 0.189111 -0.234364
Li 2.603 -0.197189 -0.0411025
Li 1.37319 2.26285 0.275466
3
 Atoms. Timestep: 6900
Li -0.130619 0.111903 -0.0629384
Li 2.4459 -0.442458 -0.1892
Li 1.63059 2.30708 0.252138
3
 Atoms. Timestep: 6950
Li -0.343908 0.0360049 0.100894
Li 2.64618 -0.676589 -0.320043
Li 1.91618 2.35483 0.219149
3
 Atoms. Timestep: 7000
Li -0.290054 0.0378682 0.241824
Li 2.6635 -0.67459 -0.380045
Li 2.08244 2.1225 0.138221
3
 Atoms. Timestep: 7050
Li 0.0278559 0.0994737 0.332441
Li 2.54244 -0.657108 -0.39717
Li 2.07194 1.86411 0.0647293
3
 Atoms. Timestep: 7100
Li 0.156987 0.0880595 0.443474
Li 2.57987 -1.03798 -0.490418
Li 2.02838 2.13804 0.0469441
3
 Atoms. Timestep: 7150
Li 0.22437 0.0330389 0.527743
Li 2.59907 -1.22867 -0.529669
Li 1.99368 2.33382 0.00192554
3
 Atoms. Timestep: 7200
Li 0.395732 0.039547 0.532646
Li 2.54371 -1.21162 -0.495903
Li 1.85565 2.33147 -0.0367431
3
 Atoms. Timestep: 7250
Li 0.336762 0.0709567 0.597425
Li 2.62956 -1.11315 -0.494242
Li 1.73513 2.29169 -0.103183
3
 Atoms. Timestep: 7300
Li 0.134929 -0.00858485 0.67806
Li 2.71618 -0.859477 -0.465845
Li 1.6923 2.26963 -0.212215
3
 Atoms. Timestep: 7350
Li 0.0654678 -0.0622198 0.644146
Li 2.64596 -0.390365 -0.351459
Li 1.62106 2.0571 -0.292686
3
 Atoms. Timestep: 7400
Li -0.0136757 -0.115655 0.567719
Li 2.75446 -0.291154 -0.213237
Li 1.34299 2.25065 -0.354481
3
 Atoms. Timestep: 7450
Li -0.0100237 -0.112882 0.422298
Li 2.84553 -0.306678 -0.0517963
Li 0.979272 2.52223 -0.370502
3
 Atoms. Timestep: 7500
Li 0.0941871 -0.0244605 0.208764
Li 2.77276 -0.1847 0.113641
Li 0.67728 2.57216 -0.322406
3
 Atoms. Timestep: 7550
Li -0.0306866 -0.0714359 0.0128144
Li 2.80342 0.0308939 0.251233
Li 0.517984 2.64747 -0.264047
3
 Atoms. Timestep: 7600
Li -0.159759 -0.165211 -0.164981
Li 2.73342 0.322565 0.347101
Li 0.497853 2.6605 -0.18212
3
 Atoms. Timestep: 7650
Li -0.134353 -0.150998 -0.309174
Li 2.43524 0.661041 0.375731
Li 0.600399 2.47161 -0.0665572
3
 Atoms. Timestep: 7700
Li -0.120497 -0.193574 -0.440334
Li 2.48914 0.618472 0.463155
Li 0.422598 2.66264 -0.0228207
3
 Atoms. Timestep: 7750
Li -0.0375309 -0.127274 -0.508401
Li 2.57035 0.445691 0.518109
Li 0.215455 2.81046 -0.00970721
3
 Atoms. Timestep: 7800
Li 0.0779757 0.0722844 -0.515236
Li 2.52989 0.333179 0.508908
Li 0.166765 2.69806 0.00632771
3
 Atoms. Timestep: 7850
Li -0.026419 0.00256078 -0.622514
Li 2.59667 0.315345 0.529484
Li 0.297514 2.696 0.0930293
3
 Atoms. Timestep: 7900
Li -0.092365 -0.141631 -0.68543
Li 2.52079 0.372953 0.478311
Li 0.592128 2.63556 0.207119
3
 Atoms. Timestep: 7950
Li -0.0611966 -0.137642 -0.633437
Li 2.39796 0.367314 0.365394
Li 0.885114 2.44349 0.268043
3
 Atoms. Timestep: 8000
Li -0.0998784 -0.0466339 -0.548789
Li 2.69377 -0.0459454 0.29631
Li 0.863494 2.53914 0.25248
3
 Atoms. Timestep: 8050
Li -0.0346433 0.0683716 -0.356913
Li 2.8029 -0.335093 0.165046
Li 0.956304 2.4562 0.191867
3
 Atoms. Timestep: 8100
Li 0.00260001 -0.10966 -0.0891286
Li 2.6635 -0.384498 -0.0354075
Li 1.3321 2.42033 0.124536
3
 Atoms. Timestep: 8150
Li -0.167243 -0.230785 0.201752
Li 2.63209 -0.219965 -0.220482
Li 1.72313 2.19431 0.0187296
3
 Atoms. Timestep: 8200
Li -0.205353 -0.146704 0.408847
Li 2.73703 -0.419224 -0.370578
Li 1.69816 2.26922 -0.0382694
3
 Atoms. Timestep: 8250
Li 0.0498122 0.0793406 0.423311
Li 2.64326 -0.527031 -0.365603
Li 1.41665 2.26656 -0.0577077
3
 Atoms. Timestep: 8300
Li -0.0545155 -0.0484904 0.413201
Li 2.57262 -0.343683 -0.261177
Li 1.35018 2.44335 -0.152023
3
 Atoms. Timestep: 8350
Li -0.371901 -0.200064 0.336082
Li 2.60625 0.0481776 -0.117818
Li 1.35282 2.47357 -0.218264
3
 Atoms. Timestep: 8400
Li -0.344641 -0.14202 0.100341
Li 2.59209 0.196982 0.103642
Li 1.11385 2.48406 -0.203983
3
 Atoms. Timestep: 8450
Li -0.0566722 0.0496771 -0.186962
Li 2.56933 0.0612421 0.313183
Li 0.754196 2.51897 -0.126221
3
 Atoms. Timestep: 8500
Li -0.0552238 -0.119951 -0.465628
Li 2.63192 0.0239795 0.438605
Li 0.758855 2.65976 0.0270237
3
 Atoms. Timestep: 8550
Li -0.044331 -0.220425 -0.574398
Li 2.5801 0.100497 0.397843
Li 1.00818 2.48319 0.176555
3
 Atoms. Timestep: 8600
Li -0.0146514 -0.14232 -0.47181
Li 2.64048 -0.0161301 0.236936
Li 1.19567 2.25465 0.234874
3
 Atoms. Timestep: 8650
Li -0.071092 -0.0510843 -0.245063
Li 2.93837 -0.43811 0.0372971
Li 1.20713 2.34205 0.207766
3
 Atoms. Timestep: 8700
Li -0.00985872 -0.0496783 0.0607179
Li 2.8728 -0.573921 -0.178949
Li 1.35443 2.33888 0.118232
3
 Atoms. Timestep: 8750
Li 0.0577174 -0.123423 0.346966
Li 2.56681 -0.377827 -0.327674
Li 1.57787 2.23094 -0.0192913
3
 Atoms. Timestep: 8800
Li -0.193109 -0.0957992 0.592108
Li 2.61302 -0.242305 -0.470928
Li 1.61501 2.22895 -0.12118
3
 Atoms. Timestep: 8850
Li -0.228708 0.0688638 0.576691
Li 2.66361 -0.308925 -0.466118
Li 1.33689 2.38409 -0.110573
3
 Atoms. Timestep: 8900
Li -0.0953925 0.130584 0.333346
Li 2.47844 -0.139178 -0.244564
Li 1.11898 2.41221 -0.0887827
3
 Atoms. Timestep: 8950
Li -0.363998 -0.16483 0.0937333
Li 2.50545 0.149882 0.0204726
Li 1.17516 2.59697 -0.114206
3
 Atoms. Timestep: 9000
Li -0.461482 -0.280247 -0.167833
Li 2.57674 0.321418 0.269579
Li 1.1626 2.57813 -0.101746
3
 Atoms. Timestep: 9050
Li -0.176886 -0.142405 -0.347362
Li 2.57572 0.181275 0.431867
Li 0.999552 2.46446 -0.0845053
3
 Atoms. Timestep: 9100
Li 0.0806125 -0.0946039 -0.454272
Li 2.58928 -0.0287048 0.468808
Li 0.967126 2.39702 -0.0145362
3
 Atoms. Timestep: 9150
Li -0.0498469 -0.354633 -0.540856
Li 2.74928 -0.125333 0.414672
Li 1.21347 2.48821 0.126184
3
 Atoms. Timestep: 9200
Li -0.00728497 -0.353896 -0.382371
Li 2.66773 -0.086546 0.175756
Li 1.47246 2.23701 0.206615
3
 Atoms. Timestep: 9250
Li -0.00517624 -0.126504 -0.0807035
Li 2.80974 -0.357173 -0.124586
Li 1.41848 2.19351 0.20529
3
 Atoms. Timestep: 9300
Li -0.10876 0.0106367 0.226814
Li 2.89224 -0.532003 -0.363904
Li 1.36996 2.29817 0.13709
3
 Atoms. Timestep: 9350
Li -0.115137 -0.0225918 0.424601
Li 2.6211 -0.366663 -0.427543
Li 1.44223 2.36355 0.00294239
3
 Atoms. Timestep: 9400
Li -0.123751 -0.00344275 0.499757
Li 2.376 -0.0774778 -0.372562
Li 1.42479 2.31613 -0.127195
3
 Atoms. Timestep: 9450
Li -0.36356 0.0932155 0.499522
Li 2.63764 -0.161915 -0.344816
Li 1.15756 2.54003 -0.154706
3
 Atoms. Timestep: 9500
Li -0.302122 0.20966 0.276044
Li 2.65588 -0.077742 -0.15848
Li 0.940825 2.47129 -0.117563
3
 Atoms. Timestep: 9550
Li -0.215529 -0.0845147 -0.00808432
Li 2.44405 0.16125 0.102368
Li 1.08304 2.51014 -0.0942837
3
 Atoms. Timestep: 9600
Li -0.243885 -0.382385 -0.288874
Li 2.51288 0.21359 0.358748
Li 1.20713 2.59732 -0.0698733
3
 Atoms. Timestep: 9650
Li -0.0930894 -0.411992 -0.446839
Li 2.6127 0.0565567 0.495079
Li 1.21249 2.53765 -0.0482391
3
 Atoms. Timestep: 9700
Li 0.160837 -0.1773 -0.434125
Li 2.62454 -0.0758452 0.448409
Li 1.20745 2.18449 -0.0142836
3
 Atoms. Timestep: 9750
Li -0.0738207 -0.247283 -0.439111
Li 2.9113 -0.240822 0.364174
Li 1.33295 2.24855 0.0749372
3
 Atoms. Timestep: 9800
Li -0.19739 -0.293304 -0.282651
Li 2.90163 -0.243378 0.126074
Li 1.50129 2.26336 0.156577
3
 Atoms. Timestep: 9850
Li -0.038729 -0.1165 0.00883097
Li 2.63068 -0.192225 -0.183335
Li 1.49511 2.1494 0.174504
3
 Atoms. Timestep: 9900
Li -0.103625 0.0237474 0.321985
Li 2.63529 -0.364236 -0.490354
Li 1.3241 2.40372 0.168369
3
 Atoms. Timestep: 9950
Li -0.17784 0.0817401 0.51147
Li 2.54525 -0.302805 -0.593124
Li 1.22278 2.53983 0.081654
3
 Atoms. Timestep: 10000
Li -0.113387 0.119137 0.500652
Li 2.31413 -0.00150641 -0.440226
Li 1.17922 2.40343 -0.0604264
3
 Atoms. Timestep: 10050
Li -0.377469 0.0073343 0.464933
Li 2.54917 0.0751212 -0.277784
Li 1.12383 2.51984 -0.18715
3
 Atoms. Timestep: 10100
Li -0.391908 -0.0154329 0.241737
Li 2.73217 0.0449068 -0.0265076
Li 1.02433 2.50638 -0.21523
3
 Atoms. Timestep: 10150
Li -0.121273 -0.0278501 -0.0843964
Li 2.61904 0.096349 0.239488
Li 1.06517 2.2765 -0.155091
3
 Atoms. Timestep: 10200
Li -0.0382749 -0.375094 -0.379259
Li 2.58925 0.0135856 0.461851
Li 1.27202 2.45627 -0.082592
3
 Atoms. Timestep: 10250
Li 0.0433905 -0.504068 -0.543674
Li 2.6008 -0.0830646 0.542017
Li 1.41262 2.4569 0.00165711
3
 Atoms. Timestep: 10300
Li 0.129456 -0.335906 -0.518196
Li 2.61641 -0.138797 0.454459
Li 1.44001 2.2203 0.0637375
3
 Atoms. Timestep: 10350
Li -0.00779555 -0.0592666 -0.388692
Li 2.87019 -0.322251 0.319837
Li 1.30501 2.14488 0.0688552
3
 Atoms. Timestep: 10400
Li -0.234467 -0.0924774 -0.178077
Li 2.86518 -0.326993 0.0582033
Li 1.37789 2.33564 0.119873
3
 Atoms. Timestep: 10450
Li -0.198012 -0.058959 0.105407
Li 2.52213 -0.0957077 -0.232599
Li 1.43974 2.30633 0.127192
3
 Atoms. Timestep: 10500
Li -0.203898 0.0543672 0.392401
Li 2.44065 -0.105881 -0.53205
Li 1.27939 2.44154 0.13965
3
 Atoms. Timestep: 10550
Li -0.227793 0.156679 0.560079
Li 2.49467 -0.139972 -0.673283
Li 1.08196 2.5343 0.113204
3
 Atoms. Timestep: 10600
Li -0.120537 0.0889184 0.51104
Li 2.37053 0.0182644 -0.500342
Li 1.06768 2.47381 -0.0106975
3
 Atoms. Timestep: 10650
Li -0.240441 -0.141981 0.390261
Li 2.51343 0.134549 -0.230429
Li 1.15919 2.47825 -0.159832
3
 Atoms. Timestep: 10700
Li -0.272404 -0.215997 0.145459
Li 2.78658 0.0495347 0.0748567
Li 1.1386 2.42501 -0.220316
3
 Atoms. Timestep: 10750
Li -0.0238449 -0.131984 -0.164309
Li 2.77188 -0.00727915 0.348586
Li 1.15644 2.15563 -0.184277
3
 Atoms. Timestep: 10800
Li 0.0779634 -0.383101 -0.415514
Li 2.65603 -0.110759 0.515254
Li 1.36835 2.31983 -0.0997406
3
 Atoms. Timestep: 10850
Li 0.0832448 -0.477733 -0.544983
Li 2.58054 -0.171981 0.539776
Li 1.51643 2.40074 0.00520721
3
 Atoms. Timestep: 10900
Li 0.0115094 -0.28937 -0.51416
Li 2.59522 -0.162243 0.43045
Li 1.50608 2.26751 0.0837101
3
 Atoms. Timestep: 10950
Li -0.0983962 0.0601905 -0.323521
Li 2.73044 -0.266033 0.23143
Li 1.29183 2.20354 0.0920913
3
 Atoms. Timestep: 11000
Li -0.311526 0.0326416 -0.0763002
Li 2.68324 -0.243377 -0.0538623
Li 1.30617 2.44513 0.130162
3
 Atoms. Timestep: 11050
Li -0.287652 -0.0165792 0.19041
Li 2.38403 -0.007521 -0.314501
Li 1.36165 2.47004 0.124091
3
 Atoms. Timestep: 11100
Li -0.255139 0.0474286 0.433634
Li 2.36871 0.0340683 -0.557034
Li 1.2245 2.47986 0.1234
3
 Atoms. Timestep: 11150
Li -0.189534 0.127327 0.543757
Li 2.52372 -0.0598925 -0.655127
Li 1.0234 2.47515 0.11137
3
 Atoms. Timestep: 11200
Li -0.0612019 -0.0500412 0.463647
Li 2.4944 -0.00430156 -0.451396
Li 1.07572 2.45132 -0.0122502
3
 Atoms. Timestep: 11250
Li -0.111238 -0.284235 0.289472
Li 2.62363 0.0828879 -0.135345
Li 1.22775 2.37583 -0.154127
3
 Atoms. Timestep: 11300
Li -0.142031 -0.305801 0.0288557
Li 2.88813 -0.015054 0.193487
Li 1.22677 2.2714 -0.222343
3
 Atoms. Timestep: 11350
Li 0.0298499 -0.193242 -0.238941
Li 2.85956 -0.102537 0.440017
Li 1.2394 2.09628 -0.201076
3
 Atoms. Timestep: 11400
Li 0.0888942 -0.366991 -0.411457
Li 2.61942 -0.153755 0.519827
Li 1.44781 2.29496 -0.108369
3
 Atoms. Timestep: 11450
Li -0.0231623 -0.363757 -0.500327
Li 2.5294 -0.161879 0.497973
Li 1.54041 2.40519 0.00235333
3
 Atoms. Timestep: 11500
Li -0.171557 -0.114516 -0.444424
Li 2.56518 -0.137256 0.362609
Li 1.44467 2.33182 0.0818151
3
 Atoms. Timestep: 11550
Li -0.210078 0.188667 -0.222249
Li 2.5902 -0.181993 0.107049
Li 1.22175 2.30085 0.1152
3
 Atoms. Timestep: 11600
Li -0.364971 0.053578 0.0175541
Li 2.51492 -0.141745 -0.182864
Li 1.26722 2.57343 0.16531
3
 Atoms. Timestep: 11650
Li -0.289852 -0.0345403 0.24932
Li 2.31993 0.0665042 -0.394878
Li 1.31577 2.52192 0.145558
3
 Atoms. Timestep: 11700
Li -0.215483 0.0017622 0.438206
Li 2.44699 0.0582067 -0.570571
Li 1.1795 2.43122 0.132365
3
 Atoms. Timestep: 11750
Li -0.0827527 0.00747543 0.480922
Li 2.64543 -0.0879001 -0.581068
Li 1.02696 2.39973 0.100146
3
 Atoms. Timestep: 11800
Li 0.0513448 -0.216672 0.364594
Li 2.63582 -0.0798928 -0.332547
Li 1.13362 2.39345 -0.0320477
3
 Atoms. Timestep: 11850
Li -0.0362416 -0.361614 0.172012
Li 2.76421 0.0185507 -0.00991956
Li 1.29832 2.24221 -0.162092
3
 Atoms. Timestep: 11900
Li -0.0937273 -0.283613 -0.0726822
Li 2.95969 -0.0713153 0.30992
Li 1.2713 2.1473 -0.237238
3
 Atoms. Timestep: 11950
Li -0.0148834 -0.185462 -0.271919
Li 2.84586 -0.148765 0.499485
Li 1.28614 2.14598 -0.227566
3
 Atoms. Timestep: 12000
Li 0.0237358 -0.251951 -0.359538
Li 2.50123 -0.131803 0.487485
Li 1.44871 2.33353 -0.127947
3
 Atoms. Timestep: 12050
Li -0.22001 -0.158161 -0.427155
Li 2.50937 -0.116589 0.437385
Li 1.46679 2.43384 -0.0102303
3
 Atoms. Timestep: 12100
Li -0.328505 0.113606 -0.342353
Li 2.55572 -0.0983565 0.260281
Li 1.31103 2.3535 0.0820718
3
 Atoms. Timestep: 12150
Li -0.308365 0.204205 -0.141008
Li 2.50337 -0.107035 -0.0238396
Li 1.19826 2.41109 0.164847
3
 Atoms. Timestep: 12200
Li -0.326936 -0.0267351 0.0687558
Li 2.4051 -0.0512624 -0.295526
Li 1.29122 2.60924 0.22677
3
 Atoms. Timestep: 12250
Li -0.244801 -0.125381 0.275478
Li 2.39186 0.0994239 -0.468062
Li 1.32663 2.45683 0.192584
3
 Atoms. Timestep: 12300
Li -0.0991637 -0.0750737 0.406501
Li 2.60526 0.00564666 -0.565679
Li 1.16402 2.31129 0.159178
3
 Atoms. Timestep: 12350
Li 0.052188 -0.17547 0.400179
Li 2.74667 -0.143696 -0.468654
Li 1.09306 2.34761 0.0684745
3
 Atoms. Timestep: 12400
Li 0.112314 -0.35553 0.274768
Li 2.73462 -0.120938 -0.188698
Li 1.21735 2.33905 -0.0860704
3
 Atoms. Timestep: 12450
Li -0.03564 -0.336218 0.083434
Li 2.83731 -0.00976823 0.123727
Li 1.32798 2.14568 -0.207161
3
 Atoms. Timestep: 12500
Li -0.108882 -0.174538 -0.129838
Li 2.91909 -0.106714 0.413962
Li 1.25662 2.1414 -0.284123
3
 Atoms. Timestep: 12550
Li -0.0920667 -0.120414 -0.261117
Li 2.68786 -0.143419 0.524062
Li 1.3021 2.28652 -0.262944
3
 Atoms. Timestep: 12600
Li -0.108967 -0.0847514 -0.314459
Li 2.38838 -0.0728982 0.450777
Li 1.40108 2.38953 -0.136318
3
 Atoms. Timestep: 12650
Li -0.393483 0.059803 -0.36418
Li 2.52795 -0.0814857 0.360122
Li 1.3536 2.43872 0.00405842
3
 Atoms. Timestep: 12700
Li -0.381197 0.25929 -0.256761
Li 2.56612 -0.0846497 0.132145
Li 1.20024 2.34141 0.124616
3
 Atoms. Timestep: 12750
Li -0.303878 0.0989186 -0.0914466
Li 2.46379 -0.064415 -0.157565
Li 1.24583 2.46175 0.249012
3
 Atoms. Timestep: 12800
Li -0.236415 -0.14589 0.101988
Li 2.43435 0.0012612 -0.396989
Li 1.34404 2.50979 0.295001
3
 Atoms. Timestep: 12850
Li -0.15377 -0.210406 0.290302
Li 2.57648 0.0621132 -0.526918
Li 1.3245 2.31598 0.236616
3
 Atoms. Timestep: 12900
Li 0.0488468 -0.164288 0.368914