9
 Atoms. Timestep: 150
Li -1.47529 -1.68808 2.28083
Li -2.56225 0.230984 0.72961
Li -0.0390934 -0.1276 1.70824
Li 0.330621 -2.31242 0.0725002
Li 1.58825 -1.25006 -2.19742
Li 1.91501 0.803541 -0.11041
Li -1.38107 2.60913 0.506544
Li 1.20489 1.67135 -2.24895
Li -0.767696 -0.130215 -1.12231
9
 Atoms. Timestep: 200
Li -3.37969 -0.946379 2.98034
Li -2.88685 0.755119 1.39121
Li 0.347344 3.55641 1.63662
Li 1.55271 -3.30286 2.19515
Li 1.88397 -2.77216 -4.19888
Li 2.00183 -2.70235 -1.36822
Li -1.70633 2.45031 -0.159946
Li 2.72612 0.287434 -1.4734
Li -0.692557 0.0600452 0.809156
9
 Atoms. Timestep: 250
Li -4.40046 0.142825 2.82602
Li -1.94255 0.00789769 1.1425
Li 0.888085 6.17168 -0.576042
Li 1.68097 -3.13917 2.31296
Li 1.12556 -1.79486 -3.5899
Li -1.99303 -4.57057 -2.46321
Li 0.0780634 -0.0514521 -2.12293
Li 3.5272 -0.575741 0.945935
Li 0.879961 1.20139 3.33087
9
 Atoms. Timestep: 300
Li -2.73136 2.32842 -0.00463471
Li -0.724389 -2.46661 2.3282
Li 0.0516456 3.62667 -2.66305
Li 1.62741 -1.54436 -0.565466
Li 2.13204 -2.63349 -4.0669
Li -5.37073 -2.71902 -1.34303
Li -0.345228 0.681942 0.900354
Li 2.47966 0.379036 1.46808
Li 1.73538 2.05782 3.65225
9
 Atoms. Timestep: 350
Li -1.18915 2.94388 -0.985472
Li -1.45576 -3.28058 3.68272
Li -0.546458 -0.356059 -2.07043
Li 1.68552 -0.609169 -1.34252
Li 2.13645 -2.45404 -3.42208
Li -3.23471 -0.0923796 0.152279
Li -1.53001 1.08466 1.4246
Li 1.37977 1.73134 -0.901337
Li 1.14143 1.83793 2.17585
9
 Atoms. Timestep: 400
Li -2.21344 1.7781 -0.307713
Li -1.84717 -1.21745 2.35504
Li 0.889119 0.46565 -0.736777
Li 1.8499 -2.73836 1.17164
Li 1.10634 -1.51849 -2.62905
Li -3.7557 -2.68336 -1.65316
Li -1.18908 1.10373 2.46947
Li 1.64603 2.85721 -1.75223
Li 2.59082 1.14229 1.26067
9
 Atoms. Timestep: 450
Li -3.77824 0.46489 0.774255
Li -1.97784 -1.8477 0.052808
Li 0.828991 4.32305 0.668839
Li 0.971904 -3.61442 2.39751
Li 0.597707 -0.719027 -2.19565
Li -2.82117 -4.44199 -2.17929
Li -0.603171 0.65536 1.98432
Li 3.71208 2.25804 -1.93975
Li 2.91236 0.316545 2.24067
9
 Atoms. Timestep: 500
Li -3.47469 0.588095 1.71254
Li -2.02216 -3.0023 0.863068
Li 0.131997 6.15737 -0.887978
Li 0.824808 -2.11074 0.885968
Li 0.91455 -0.660628 -2.05752
Li -0.233703 -3.44126 -1.97451
Li -0.122321 0.16478 -0.105613
Li 3.8383 -0.247567 -0.155056
Li -0.283888 0.579062 2.95018
9
 Atoms. Timestep: 550
Li -3.62195 1.46563 -0.158648
Li -2.94975 -2.51255 3.376
Li -0.910026 3.08142 -1.98743
Li 0.155178 -0.887363 -0.510609
Li 2.5197 -0.533698 -3.22216
Li -0.497606 -3.0926 -1.96297
Li 0.562842 1.6577 -1.06968
Li 3.88421 -0.689565 1.56529
Li -0.416642 1.5225 3.40324
9
 Atoms. Timestep: 600
Li -4.00401 1.6616 -0.695417
Li -1.34856 -0.337683 3.58377
Li -1.10045 1.52435 -2.46667
Li -0.565531 -1.99693 0.487734
Li 2.384 -0.622396 -3.23806
Li -3.15337 -2.83666 -1.26589
Li 1.54533 -0.0266928 -0.710318
Li 3.20417 1.23988 0.984752
Li 1.60777 1.77303 2.42062
9
 Atoms. Timestep: 650
Li -3.07648 0.920577 1.51433
Li -0.721434 -0.763017 1.4974
Li 1.22991 1.94955 -0.765732
Li 1.02308 -3.37353 1.38215
Li 0.846416 -1.54932 -2.79981
Li -3.58513 -1.42344 -0.189355
Li -1.54778 -1.4707 -0.434121
Li 3.74121 2.09221 -1.37676
Li 1.3749 2.31982 1.79115
9
 Atoms. Timestep: 700
Li -1.40407 0.563196 2.41455
Li -1.04941 -2.46557 2.53397
Li 1.27915 3.24274 -0.752472
Li 2.59345 -2.60792 0.817492
Li 1.49289 -1.90263 -3.22416
Li -4.40569 -0.926147 0.074755
Li -1.92757 -1.33501 -1.26806
Li 2.6455 0.648905 -2.34927
Li 0.549994 2.33746 3.41172
9
 Atoms. Timestep: 750
Li -1.92648 0.939277 1.00088
Li -1.52012 -2.36232 2.72378
Li -0.685728 3.60366 -0.9018
Li 2.40961 -1.99435 0.585946
Li 2.67711 -1.60946 -3.52479
Li -2.65157 -2.33715 -0.594448
Li -0.745359 1.18447 -1.07629
Li 2.10667 0.342305 -1.08528
Li -0.31796 0.791654 3.62175
9
 Atoms. Timestep: 800
Li -4.31393 1.54857 1.26928
Li -2.12844 -1.39198 1.44309
Li -1.6584 4.54364 -0.124854
Li 1.20532 -2.98755 1.503
Li 1.55253 -0.844178 -2.25083
Li -0.213174 -3.31602 -1.47841
Li -0.884049 0.578934 -2.25478
Li 4.6366 1.41669 -0.422442
Li 0.490482 0.554835 1.66613
9
 Atoms. Timestep: 850
Li -3.81263 1.49506 0.768571
Li -2.04322 -1.25485 1.0081
Li -0.247405 3.07612 0.0389472
Li -0.0471417 -2.44719 0.728462
Li 1.97199 -0.995095 -0.951561
Li -0.348689 -2.72173 -1.60853
Li -1.93564 -0.223117 -1.19966
Li 3.68395 1.21292 0.346668
Li 1.54498 1.77508 0.387462
9
 Atoms. Timestep: 900
Li -1.86121 1.50757 1.16209
Li -1.77236 -1.43508 3.48143
Li -1.59676 3.12947 -1.46951
Li 1.1534 -1.71041 0.564222
Li 2.16937 -1.16721 -2.098
Li -2.95182 -2.09565 -1.89074
Li -0.435666 0.10147 -1.30462
Li 4.0991 -0.623876 0.127311
Li 0.610292 0.692082 2.32229
9
 Atoms. Timestep: 950
Li -1.57963 1.67313 1.50072
Li -1.45212 -2.25737 3.74093
Li -0.897165 2.69534 -1.61589
Li 1.27145 -1.86558 1.13315
Li 1.11013 -1.26776 -4.22349
Li -3.60827 -1.89018 -1.07364
Li 1.18013 0.453338 -0.714335
Li 3.51324 -0.516418 -0.83675
Li 0.114935 0.815325 3.4898
9
 Atoms. Timestep: 1000
Li -2.74758 1.1966 0.449472
Li -1.6313 -2.53389 1.77203
Li 0.391557 3.65794 -0.779895
Li 0.749601 -2.49722 1.00393
Li 0.232007 -1.22069 -3.51855
Li -1.50014 -1.96748 -0.362597
Li -0.504553 -0.377773 0.797964
Li 3.3966 0.771331 -1.14901
Li 0.780974 1.94875 2.1564
9
 Atoms. Timestep: 1050
Li -3.3953 0.654857 -0.0596739
Li -2.24547 -1.85219 2.14373
Li 0.647648 4.08059 -0.12884
Li 1.78939 -2.60405 -0.251592
Li 1.71276 -0.230729 -2.06337
Li -1.49767 -3.63461 -2.12111
Li -0.953856 0.0539982 1.49068
Li 2.28901 1.63788 -0.860389
Li 0.365896 1.9375 1.25482
9
 Atoms. Timestep: 1100
Li -3.23306 1.01625 0.551474
Li -2.44555 -1.99599 2.81998
Li -0.035101 3.07476 -0.646249
Li 1.63168 -2.12915 -0.131397
Li 2.65425 -1.13403 -2.85559
Li -2.40667 -3.49308 -1.59153
Li -0.0965002 -5.85282e-05 -0.799509
Li 2.79101 2.09839 -0.22381
Li 0.0835409 2.06439 2.77171
9
 Atoms. Timestep: 1150
Li -2.37727 1.65826 1.32372
Li -1.11875 -1.34674 2.20843
Li -0.675512 1.6534 -0.949734
Li 0.676419 -1.80687 1.07689
Li 1.50253 -2.02628 -3.472
Li -2.21526 -1.26962 -0.22572
Li 1.0227 0.220408 -2.20163
Li 2.43754 0.489914 0.337509
Li 0.22507 0.677966 2.93105
9
 Atoms. Timestep: 1200
Li -1.84356 1.4208 1.75539
Li -2.29171 -1.08641 2.6065
Li -0.613354 2.76085 -0.634872
Li 1.38765 -3.25494 0.506699
Li 0.159506 -2.08115 -2.77515
Li -1.59817 -0.639077 -0.635928
Li 0.329286 0.0913867 -1.42804
Li 2.82218 0.214666 -0.0526695
Li 1.16831 0.724293 1.77716
9
 Atoms. Timestep: 1250
Li -2.3457 0.971312 1.09467
Li -2.07348 -1.62776 2.22322
Li 0.368914 4.2918 -0.516359
Li 1.33031 -3.37808 -0.0403775
Li 0.273252 -1.5016 -1.9083
Li -2.93031 -3.05315 -1.02486
Li 0.198768 0.77702 -0.729848
Li 3.47228 1.02866 -0.746684
Li 0.750105 1.75771 1.75705
9
 Atoms. Timestep: 1300
Li -3.15959 0.908974 0.0151441
Li -0.857665 -1.77675 1.40244
Li 0.70919 3.22861 -0.41967
Li 1.23913 -1.83773 0.463249
Li 1.55195 -0.734468 -2.53839
Li -2.38554 -3.83585 -1.27835
Li -0.524439 0.609052 -0.435592
Li 2.2069 1.18472 -0.727602
Li -0.00570965 2.15178 3.0543
9
 Atoms. Timestep: 1350
Li -3.418 1.17294 0.307359
Li -1.79313 -1.20787 2.09864
Li -0.751863 2.43483 -0.378582
Li 2.4479 -2.10335 1.05858
Li 2.06238 -0.499727 -3.24367
Li -0.928426 -2.24578 -1.20496
Li -0.60975 -0.211448 -0.175418
Li 2.25332 0.893518 -0.759179
Li -0.174981 0.931245 2.49773
9
 Atoms. Timestep: 1400
Li -2.26954 1.16932 1.37523
Li -2.10529 -1.07695 2.66489
Li -1.35636 3.54179 -0.818419
Li 1.63771 -3.23768 1.19603
Li 1.16298 -1.26748 -2.59981
Li -1.05841 -2.5413 -1.7822
Li -0.0468696 0.242432 -1.12852
Li 2.65814 1.03477 -0.677283
Li 0.868345 0.354512 2.82669
9
 Atoms. Timestep: 1450
Li -1.4788 1.30501 1.34174
Li -1.06953 -1.59496 2.16957
Li 0.0111117 3.73438 -0.973681
Li 0.106831 -2.45237 0.150675
Li 1.02735 -2.4943 -2.25371
Li -2.24595 -2.09455 -1.07101
Li -0.489478 0.598851 -0.957191
Li 2.37247 0.471745 -0.0585207
Li 1.15942 0.973589 2.5022
9
 Atoms. Timestep: 1500
Li -2.67453 1.56764 1.28231
Li -0.716922 -1.38177 2.12924
Li 1.26218 2.31799 -0.51768
Li 0.626709 -2.11294 -0.317923
Li 1.63577 -1.94754 -3.03956
Li -2.70623 -1.52551 -0.280668
Li -0.574808 0.779573 -0.842948
Li 2.00336 0.0273185 0.00709028
Li 0.113881 1.71624 1.53002
9
 Atoms. Timestep: 1550
Li -3.66789 1.19935 0.702224
Li -1.24941 -0.961909 1.90302
Li 1.02006 2.82633 -0.743404
Li 1.8012 -2.92914 0.707076
Li 1.762 -0.38517 -3.25308
Li -1.7507 -1.92247 -0.569725
Li -0.857673 0.508683 -0.706475
Li 2.52453 -0.0602737 -0.326383
Li -0.727085 1.43355 1.99386
9
 Atoms. Timestep: 1600
Li -2.60111 0.668084 0.240201
Li -1.77766 -1.63117 1.673
Li -0.809953 3.15292 -0.679474
Li 1.83956 -2.29383 1.2199
Li 0.868039 -0.0682006 -2.30319
Li -1.14158 -3.12474 -1.49943
Li -0.0270697 0.11914 -0.0693133
Li 2.67018 0.771312 -0.413281
Li 0.176407 1.31458 2.26426
9
 Atoms. Timestep: 1650
Li -2.54594 0.946996 0.81377
Li -1.37668 -1.75771 1.61636
Li -1.24195 2.97292 -0.533473
Li 1.75724 -2.39641 1.04334
Li 0.54915 -1.46573 -2.51303
Li -1.40331 -2.59263 -1.50945
Li 0.039365 0.130226 -0.283434
Li 2.34412 1.3299 0.0118181
Li 1.34772 1.10104 2.36613
9
 Atoms. Timestep: 1700
Li -3.59951 1.31664 1.61855
Li -0.674708 -1.15463 1.77753
Li 0.380822 2.87214 -0.644976
Li 1.46403 -2.82249 0.3976
Li 1.53007 -2.05168 -2.72095
Li -2.40869 -1.47981 -0.45745
Li -0.50655 0.239 -1.29957
Li 2.25308 0.907589 -0.379385
Li 0.842814 0.883226 2.32082
9
 Atoms. Timestep: 1750
Li -2.85148 1.31799 1.05391
Li -1.14659 -1.52327 1.89148
Li 1.16315 2.62916 -0.568635
Li 0.596033 -1.91691 -0.175345
Li 1.81286 -1.33178 -2.47897
Li -2.59146 -1.37137 -0.228609
Li -0.441674 0.0474216 -0.886811
Li 2.32129 -0.0082802 -0.533714
Li 0.0714936 1.6819 1.80059
9
 Atoms. Timestep: 1800
Li -2.68675 1.11686 0.470037
Li -1.61714 -1.70809 2.20938
Li 0.51717 3.17963 -0.802695
Li 0.87752 -2.31315 0.609781
Li 0.888811 -0.946429 -2.9711
Li -1.89173 -2.3111 -1.33391
Li 0.253876 0.029893 -0.7694
Li 2.55095 0.720867 0.498886
Li 0.0491186 1.73714 1.98034
9
 Atoms. Timestep: 1850
Li -3.21166 1.07309 0.774304
Li -1.42039 -1.20555 1.84354
Li -0.446115 3.60993 -0.843544
Li 1.53534 -2.44117 1.21461
Li 0.505068 -1.14942 -3.25454
Li -0.793996 -2.70516 -1.74121
Li 0.185108 -0.50657 -0.102886
Li 2.33583 1.30547 0.297964
Li 0.583845 0.748914 2.40621
9
 Atoms. Timestep: 1900
Li -2.48358 1.07864 1.03837
Li -1.56402 -1.2752 2.17106
Li -0.72948 2.58886 -0.41354
Li 1.52899 -2.04751 0.796234
Li 1.31238 -1.15509 -2.58524
Li -1.24417 -2.31818 -0.686095
Li -0.399419 0.312134 -0.741401
Li 2.14954 0.859906 -0.782392
Li 0.85603 0.326836 2.12284
9
 Atoms. Timestep: 1950
Li -1.92373 0.951996 0.9486
Li -1.35119 -1.55568 2.39438
Li 0.126194 3.12165 -0.0845712
Li 0.692687 -1.55393 0.2272
Li 1.62564 -1.856 -2.48744
Li -2.46981 -1.92077 -0.114685
Li -0.580667 -0.204728 -1.42654
Li 2.58859 0.852614 -0.452399
Li 0.480874 1.09222 1.41067
9
 Atoms. Timestep: 2000
Li -2.76855 0.794737 0.459073
Li -1.21181 -1.21362 2.34404
Li 0.765962 3.37309 -0.743562
Li 0.958562 -2.02795 0.585388
Li 1.16642 -1.82948 -3.04888
Li -2.55064 -1.92786 -0.976946
Li -0.413076 0.183038 -0.878886
Li 2.61853 0.841083 0.316426
Li 0.363052 1.34392 1.80629
9
 Atoms. Timestep: 2050
Li -2.99834 0.987676 0.459475
Li -1.58223 -0.938422 1.82822
Li 0.206735 2.46363 -1.06034
Li 1.76507 -2.28952 0.23328
Li 0.671267 -0.749563 -2.47183
Li -1.24162 -1.95376 -1.68862
Li -0.206028 0.133305 0.132827
Li 2.28214 0.472883 0.0143068
Li 0.129292 1.18148 2.62333
9
 Atoms. Timestep: 2100
Li -2.29972 1.36735 0.887675
Li -1.90547 -1.69923 1.93594
Li -0.562204 2.36638 -0.818323
Li 1.41958 -1.98166 0.077872
Li 1.24162 -0.110824 -2.57133
Li -1.26171 -2.66056 -1.12737
Li -0.506151 -0.383275 -0.0861583
Li 2.84543 0.651598 -0.243084
Li 0.34832 1.0704 2.6383
9
 Atoms. Timestep: 2150
Li -2.24555 1.46839 1.4725
Li -1.22212 -1.82327 1.92497
Li -0.259711 3.05626 -0.457298
Li 1.02921 -2.08374 0.404272
Li 1.26067 -1.24906 -2.94265
Li -2.02418 -2.91265 -0.582309
Li -0.600631 0.181203 -0.592976
Li 2.83441 0.931985 0.0360167
Li 0.597885 0.933161 1.53779
9
 Atoms. Timestep: 2200
Li -2.61471 1.13199 1.0662
Li -1.06149 -0.939689 2.01528
Li 0.410307 2.99976 -0.224784
Li 1.30854 -2.12135 0.317241
Li 1.0474 -2.16388 -2.27628
Li -2.10626 -1.74514 -0.602981
Li -0.388471 0.168569 -1.23426
Li 2.30216 0.637525 -0.567057
Li 0.21934 1.12781 1.76944
9
 Atoms. Timestep: 2250
Li -2.60975 0.874841 0.105098
Li -1.70529 -1.19969 2.011
Li 0.465736 2.61866 -0.541774
Li 1.52592 -1.82566 0.719999
Li 0.839786 -1.49786 -2.30954
Li -2.11352 -1.69513 -1.01987
Li -0.300285 0.215574 -0.508503
Li 2.75381 0.3625 -0.816949
Li 0.0894425 1.64297 2.2604
9
 Atoms. Timestep: 2300
Li -2.8262 1.2435 0.310805
Li -1.6012 -1.69918 1.69586
Li 0.0218216 3.03159 -0.743847
Li 1.42665 -1.9874 0.999924
Li 1.07254 -0.382814 -2.588
Li -1.89419 -2.64325 -1.26882
Li -0.441891 -0.13588 -0.00378526
Li 3.01305 0.489093 -0.216021
Li 0.331975 1.21336 2.04642
9
 Atoms. Timestep: 2350
Li -2.46386 1.42822 1.20361
Li -1.07443 -1.74525 1.75931
Li -0.506991 2.71455 -0.536006
Li 1.27457 -2.43177 0.599226
Li 1.44091 -0.465855 -2.38286
Li -1.28387 -2.50204 -0.946479
Li -0.614996 0.209216 -0.930556
Li 2.10839 0.681483 0.0288698
Li 0.461372 0.681452 1.94388
9
 Atoms. Timestep: 2400
Li -2.25989 1.14316 1.20098
Li -1.10016 -1.42404 1.88593
Li -0.218381 2.77153 -0.155942
Li 1.17923 -2.03621 0.0071573
Li 1.49218 -1.74602 -2.45245
Li -1.65959 -2.27866 -0.782558
Li -0.445764 0.280314 -0.807275
Li 2.03802 0.770521 -0.709716
Li 0.282998 1.16544 2.48397
9
 Atoms. Timestep: 2450
Li -2.81428 0.940369 0.422862
Li -1.47834 -1.22299 1.81389
Li 0.42449 2.9683 -0.193069
Li 1.28051 -1.70744 0.697833
Li 1.00974 -2.00021 -2.88166
Li -2.37972 -2.2289 -1.00535
Li -0.364348 0.012342 -0.24437
Li 2.61335 0.695623 -0.611877
Li 0.774808 1.75704 2.15716
9
 Atoms. Timestep: 2500
Li -2.93324 1.04235 0.283433
Li -1.48939 -1.22194 1.79577
Li 0.358146 2.65241 -0.940524
Li 1.42461 -2.09096 1.0845
Li 0.706276 -0.93713 -2.41406
Li -1.89943 -1.73285 -1.06305
Li -0.272119 0.120072 -0.453521
Li 2.45282 0.465356 0.0296384
Li 0.631121 1.12168 1.64762
9
 Atoms. Timestep: 2550
Li -2.51171 1.24696 0.996625
Li -1.16186 -1.39204 1.75738
Li -0.131462 2.77811 -1.24214
Li 0.968334 -2.07718 0.356123
Li 1.50852 -0.668599 -2.62328
Li -1.52601 -2.26319 -1.12273
Li -0.310651 0.201649 -0.214936
Li 2.20104 0.350902 -0.135118
Li 0.130535 0.802001 2.59687
9
 Atoms. Timestep: 2600
Li -2.37769 1.36382 1.55007
Li -1.28558 -1.59968 1.89006
Li -0.350718 3.00607 -0.588506
Li 1.18735 -2.31008 -0.253883
Li 1.7174 -1.24944 -2.51728
Li -1.58798 -2.59574 -0.994248
Li -0.613771 0.12329 -0.513628
Li 2.5351 0.722076 -0.496007
Li 0.117549 1.10838 2.66359
9
 Atoms. Timestep: 2650
Li -2.38314 1.09079 0.840664
Li -1.25842 -1.21065 1.79276
Li -0.148706 2.75181 -0.00106866
Li 1.36768 -2.28201 0.604268
Li 1.03744 -1.46893 -2.4641
Li -1.82306 -2.07814 -0.818398
Li -0.452731 0.0607482 -0.564883
Li 2.35731 0.836625 -0.512754
Li 0.551726 1.08773 1.66501
9
 Atoms. Timestep: 2700
Li -2.67258 1.03849 0.147331
Li -1.29977 -1.02815 1.79963
Li -0.0310961 2.94709 -0.950881
Li 1.11615 -1.78286 1.02981
Li 0.680366 -1.43949 -2.54011
Li -1.96187 -1.85003 -0.926609
Li -0.350377 0.159374 -0.364122
Li 2.56793 0.697132 -0.348288
Li 0.986914 0.544137 2.24381
9
 Atoms. Timestep: 2750
Li -2.95195 1.18843 0.464125
Li -1.68587 -1.29508 1.99511
Li 0.0834297 2.61886 -1.23733
Li 1.17805 -1.93778 0.195956
Li 1.10511 -1.22021 -2.49059
Li -1.71735 -1.99075 -1.09946
Li -0.166981 0.261721 -0.151819
Li 2.70295 0.507279 -0.168247
Li 0.473783 1.18723 2.55202
9
 Atoms. Timestep: 2800
Li -2.45639 1.14452 1.20463
Li -1.28099 -1.44355 1.7765
Li 0.0801338 2.64353 -0.57874
Li 1.23363 -2.48734 0.0272124
Li 1.45142 -0.746538 -2.35419
Li -1.34424 -2.20985 -1.03848
Li -0.417583 -0.0704113 -0.197791
Li 2.14372 0.479275 -0.15346
Li -0.192974 1.5518 1.78927
9
 Atoms. Timestep: 2850
Li -2.70584 0.872705 1.00763
Li -0.907732 -1.42821 1.82202
Li -0.0335706 2.98715 -0.448659
Li 1.10315 -2.26439 0.571167
Li 1.15544 -0.964184 -2.49492
Li -1.66982 -2.69978 -1.06537
Li -0.568829 0.147429 -0.782088
Li 2.12579 0.830141 -0.130932
Li 0.827582 1.12412 2.22843
9
 Atoms. Timestep: 2900
Li -2.59043 0.970436 0.457078
Li -1.4142 -0.969796 2.01701
Li -0.100735 2.79511 -0.631428
Li 1.27745 -1.57303 0.455366
Li 0.914162 -1.56764 -2.38056
Li -1.84228 -2.07086 -0.873441
Li -0.327341 0.122289 -0.54254
Li 2.26601 0.772329 -0.430952
Li 1.01021 0.438537 2.35372
9
 Atoms. Timestep: 2950
Li -2.5292 1.42662 0.466784
Li -1.65176 -1.1065 1.81262
Li -0.00574703 2.77306 -0.667866
Li 1.56237 -2.17099 0.548231
Li 0.995549 -1.51702 -2.16758
Li -1.96855 -1.70562 -0.867331
Li -0.230305 0.128262 -0.453981
Li 2.49568 0.625723 -0.529678
Li 0.355034 0.86172 1.92261
9
 Atoms. Timestep: 3000
Li -2.27996 1.36677 0.913043
Li -1.27095 -1.5169 1.57654
Li 0.0716102 3.0011 -0.481634
Li 1.18907 -2.52036 0.492896
Li 1.48084 -1.14282 -2.44491
Li -2.06283 -2.35316 -1.18239
Li -0.446466 0.0962223 -0.48875
Li 2.33212 0.473096 -0.243152
Li 0.0540577 1.80717 2.01649
9
 Atoms. Timestep: 3050
Li -2.56971 0.993669 1.14485
Li -1.17187 -1.43199 1.94629
Li -0.0471976 2.61788 -0.490612
Li 0.981731 -2.01865 -0.0196981
Li 1.49628 -0.941669 -2.55499
Li -1.47843 -2.4377 -1.0976
Li -0.452323 0.0142896 -0.424958
Li 2.07529 0.537994 0.00979765
Li 0.417921 1.44567 2.0361
9
 Atoms. Timestep: 3100
Li -2.71474 0.927965 0.854225
Li -1.43451 -1.09647 2.24731
Li -0.0296948 2.73072 -0.657048
Li 1.56111 -1.98029 0.274659
Li 0.887867 -0.947944 -2.37701
Li -1.38251 -2.3286 -0.902925
Li -0.561809 0.169133 -0.434264
Li 2.39772 0.780657 -0.311379
Li 0.575888 0.412752 1.95669
9
 Atoms. Timestep: 3150
Li -2.6179 1.28887 0.541495
Li -1.61101 -1.38443 1.80111
Li 0.1399 3.06635 -0.601614
Li 1.34473 -1.8847 0.887557
Li 0.818857 -1.35358 -2.41799
Li -1.79916 -2.20927 -0.888361
Li -0.278309 0.110374 -0.37144
Li 2.31426 0.68168 -0.668785
Li 0.834815 0.711457 2.0432
9
 Atoms. Timestep: 3200
Li -2.29846 1.4029 0.647087
Li -1.41681 -1.4008 1.63931
Li 0.0617398 2.58106 -0.398297
Li 1.02398 -1.92492 0.595109
Li 1.30776 -1.54147 -2.35624
Li -1.98815 -1.89105 -1.19506
Li -0.38764 0.0856631 -0.508003
Li 2.23614 0.456795 -0.385533
Li 0.487008 1.54121 2.03073
9
 Atoms. Timestep: 3250
Li -2.4454 1.1994 1.03757
Li -1.39861 -1.0848 2.07103
Li -0.0745228 2.78084 -0.695287
Li 1.39974 -2.31446 0.100604
Li 1.49365 -1.03918 -2.33147
Li -1.91509 -2.16731 -1.38547
Li -0.305631 -0.137671 -0.591709
Li 2.34479 0.54982 0.0688807
Li 0.0143907 1.3171 1.98127
9
 Atoms. Timestep: 3300
Li -2.7402 0.933861 0.797261
Li -1.19048 -1.41833 2.03968
Li -0.125551 2.82239 -0.811142
Li 1.23137 -2.17245 0.334145
Li 1.2566 -0.688037 -2.59695
Li -1.56481 -2.40949 -0.971827
Li -0.389074 -0.00455807 -0.241305
Li 2.23483 0.713264 -0.0664615
Li 0.55932 0.955243 2.10891
9
 Atoms. Timestep: 3350
Li -2.65587 1.00486 0.590981
Li -1.29709 -1.67811 1.86647
Li 0.0344735 2.61805 -0.429056
Li 1.11645 -1.70323 0.590405
Li 0.842975 -1.09341 -2.32417
Li -1.43286 -2.28655 -0.723384
Li -0.439509 0.162617 -0.492421
Li 2.20155 0.673056 -0.60237
Li 0.895413 1.04978 2.10211
9
 Atoms. Timestep: 3400
Li -2.52014 1.34703 0.850226
Li -1.47076 -1.09685 1.99105
Li 0.230028 3.03094 -0.18849
Li 1.4242 -1.80916 0.522151
Li 1.04633 -1.79315 -2.25707
Li -1.80279 -2.20623 -1.25585
Li -0.44688 0.00890665 -0.475978
Li 2.28814 0.594587 -0.584022
Li 0.361869 1.03546 1.64635
9
 Atoms. Timestep: 3450
Li -2.27838 1.43748 0.927826
Li -1.30201 -1.08006 1.7516
Li -0.00254554 2.74535 -0.538551
Li 1.13384 -2.15431 0.41872
Li 1.33596 -1.45855 -2.3193
Li -2.01297 -2.09649 -1.38276
Li -0.325486 -0.0283372 -0.701946
Li 2.21908 0.590387 -0.104304
Li 0.272501 1.32012 2.04845
9
 Atoms. Timestep: 3500
Li -2.34619 1.16094 0.666506
Li -1.25059 -1.59957 1.71561
Li -0.222723 2.64656 -0.801493
Li 0.95779 -2.23025 0.25309
Li 1.3309 -0.687484 -2.4309
Li -1.74971 -2.08764 -0.905515
Li -0.352149 -0.116134 -0.324003
Li 2.27452 0.607725 0.111702
Li 0.513286 1.31161 2.05919
9
 Atoms. Timestep: 3550
Li -2.74491 0.977608 0.754331
Li -1.41838 -1.46402 2.13579
Li -0.0782346 2.83868 -0.565831
Li 1.43682 -2.19788 0.170744
Li 1.10855 -0.724232 -2.4038
Li -1.59837 -2.41452 -0.714697
Li -0.29026 0.0959355 -0.408713
Li 2.47994 0.585027 -0.370568
Li 0.383748 1.01918 2.00967
9
 Atoms. Timestep: 3600
Li -2.59101 1.01908 0.898874
Li -1.23697 -1.0364 1.90516
Li 0.161471 2.65219 -0.204824
Li 1.25221 -1.68906 0.395917
Li 1.11272 -1.58533 -2.51835
Li -1.52046 -2.26417 -0.891676
Li -0.542373 0.108871 -0.524209
Li 2.29106 0.600822 -0.657153
Li 0.302213 1.02704 2.09693
9
 Atoms. Timestep: 3650
Li -2.30177 1.42228 0.889487
Li -1.40134 -1.40002 1.65743
Li 0.16669 2.89102 -0.400081
Li 1.10225 -1.89764 0.61584
Li 1.07628 -1.6965 -2.18712
Li -1.68834 -2.12962 -1.16936
Li -0.490038 0.107991 -0.666035
Li 2.15529 0.699586 -0.390237
Li 0.466214 1.1725 1.84584
9
 Atoms. Timestep: 3700
Li -2.25193 1.46292 0.796849
Li -1.58143 -1.44383 1.73978
Li -0.139171 2.94656 -0.823105
Li 1.30866 -2.30476 0.439175
Li 1.18788 -1.03248 -2.16733
Li -1.86049 -2.17979 -1.15027
Li -0.389749 0.171081 -0.445275
Li 2.42059 0.618179 -0.0526053
Li 0.368579 0.983957 1.81122
9
 Atoms. Timestep: 3750
Li -2.62773 1.13535 0.819778
Li -1.11097 -1.15721 1.80959
Li -0.289859 2.47166 -0.689114
Li 1.08555 -2.03134 0.221312
Li 1.45477 -0.800594 -2.62638
Li -1.70737 -2.11126 -0.823789
Li -0.236997 -0.0614305 -0.422269
Li 2.34252 0.421583 -0.185
Li 0.280389 1.05661 2.31471
9
 Atoms. Timestep: 3800
Li -2.53621 0.767964 0.757311
Li -1.00948 -1.31779 1.97754
Li -0.0437467 2.99222 -0.263051
Li 1.18542 -2.15767 0.386578
Li 1.20373 -1.14426 -2.51077
Li -1.70186 -2.31656 -0.745137
Li -0.45356 0.0418731 -0.578864
Li 2.26239 0.581454 -0.417477
Li 0.367587 1.27935 1.99099
9
 Atoms. Timestep: 3850
Li -2.45846 1.04614 0.900393
Li -1.273 -1.43193 1.79566
Li 0.217806 3.15982 -0.295902
Li 1.13891 -1.94596 0.496713
Li 0.922664 -1.61087 -2.15792
Li -1.65492 -2.25376 -0.944178
Li -0.377517 0.0518685 -0.565688
Li 2.25477 0.782612 -0.405004
Li 0.422509 1.11969 1.59998
9
 Atoms. Timestep: 3900
Li -2.35474 1.47147 0.928686
Li -1.45403 -1.20111 1.59092
Li 0.116097 2.53995 -0.745494
Li 1.08034 -1.72962 0.558621
Li 1.10407 -1.5271 -2.37142
Li -1.65751 -2.14235 -1.17869
Li -0.457347 0.212517 -0.560966
Li 2.29891 0.662662 -0.258051
Li 0.396005 0.914666 2.20361
9
 Atoms. Timestep: 3950
Li -2.29197 1.38018 0.757589
Li -1.43462 -1.20953 1.88683
Li -0.00142011 2.81501 -0.804509
Li 1.2401 -2.16555 0.521428
Li 1.26565 -0.842209 -2.41205
Li -1.77388 -2.27236 -1.15514
Li -0.385005 0.0248698 -0.472858
Li 2.18168 0.520766 -0.160922
Li 0.29046 0.904887 2.04765
9
 Atoms. Timestep: 4000
Li -2.5801 1.05072 0.771554
Li -1.17985 -1.47647 2.03056
Li -0.152119 2.74861 -0.359792
Li 1.18778 -2.35302 0.362132
Li 1.30573 -0.791065 -2.4511
Li -1.74977 -2.20651 -0.836652
Li -0.37252 -0.0284476 -0.580048
Li 2.38069 0.651071 -0.181109
Li 0.377288 1.26558 1.72027
9
 Atoms. Timestep: 4050
Li -2.58958 0.87653 0.862702
Li -1.00297 -1.28762 1.75296
Li -0.187788 2.73546 -0.426558
Li 1.0601 -1.92377 0.189362
Li 1.25594 -1.42201 -2.46235
Li -1.76263 -2.22641 -0.719631
Li -0.286022 0.225284 -0.389522
Li 2.32543 0.680181 -0.347292
Li 0.448095 1.10108 2.10832
9
 Atoms. Timestep: 4100
Li -2.47955 1.22201 0.874987
Li -1.35558 -1.2387 1.88332
Li 0.0276655 3.07703 -0.676007
Li 1.35544 -1.96864 0.493413
Li 0.980482 -1.52661 -2.32719
Li -1.64568 -2.08448 -1.05183
Li -0.382327 0.0549159 -0.583643
Li 2.22638 0.587216 -0.395434
Li 0.433271 0.871375 2.13712
9
 Atoms. Timestep: 4150
Li -2.3603 1.50977 0.779008
Li -1.44966 -1.44097 1.80147
Li 0.15809 2.65582 -0.626538
Li 1.09146 -1.92029 0.718648
Li 1.02407 -1.14241 -2.31967
Li -1.67735 -2.23453 -1.27116
Li -0.456737 0.162256 -0.444172
Li 2.35132 0.570445 -0.248732
Li 0.387938 1.04795 1.77208
9
 Atoms. Timestep: 4200
Li -2.36501 1.2841 0.793668
Li -1.33282 -1.24669 1.72944
Li 0.0812641 2.4756 -0.411828
Li 1.0532 -1.9317 0.317418
Li 1.35785 -0.937624 -2.37561
Li -1.76918 -2.42832 -1.0507
Li -0.541477 -0.0140459 -0.625599
Li 2.23155 0.587404 -0.171615
Li 0.405629 1.29702 2.06654
9
 Atoms. Timestep: 4250
Li -2.53129 1.02405 0.880498
Li -1.17894 -1.1647 1.88302
Li -0.0848827 2.95952 -0.373146
Li 1.35616 -2.20732 0.0882535
Li 1.40226 -1.13007 -2.44722
Li -1.77395 -2.34614 -0.725026
Li -0.373393 -0.0285358 -0.53951
Li 2.15957 0.693285 -0.197704
Li 0.259332 1.01884 1.94429
9
 Atoms. Timestep: 4300
Li -2.50783 1.05838 0.772671
Li -1.11793 -1.6119 1.92815
Li -0.149019 2.82742 -0.481791
Li 1.12511 -2.03728 0.451684
Li 1.04482 -1.30958 -2.38492
Li -1.74664 -2.12203 -0.791141
Li -0.232888 0.168542 -0.514083
Li 2.4241 0.698735 -0.308976
Li 0.400673 1.1337 1.85359
9
 Atoms. Timestep: 4350
Li -2.28915 1.17714 0.72091
Li -1.44039 -1.39574 1.87508
Li -0.00810197 2.7804 -0.556584
Li 1.1065 -1.78742 0.590209
Li 0.961017 -1.4252 -2.34889
Li -1.68849 -2.08028 -1.1623
Li -0.392273 0.0284434 -0.506217
Li 2.36483 0.508748 -0.359534
Li 0.519062 1.25152 2.04453
9
 Atoms. Timestep: 4400
Li -2.55137 1.47933 0.983875
Li -1.51249 -0.967724 1.73983
Li 0.117049 2.73144 -0.470274
Li 1.3259 -2.10331 0.464796
Li 1.25356 -1.30393 -2.35944
Li -1.66009 -2.24953 -1.25293
Li -0.38505 0.0485716 -0.45905
Li 2.17282 0.568461 -0.302192
Li 0.314535 0.99056 1.82915
9
 Atoms. Timestep: 4450
Li -2.51957 1.33274 0.872539
Li -1.22918 -1.3617 1.78183
Li 0.0222731 2.57219 -0.403038
Li 1.04327 -2.11619 0.233414
Li 1.35673 -0.992937 -2.27762
Li -1.66042 -2.33261 -0.918582
Li -0.51094 0.0691664 -0.671465
Li 2.30302 0.756393 -0.223794
Li 0.344974 1.09036 1.94036
9
 Atoms. Timestep: 4500
Li -2.43838 0.963866 0.777812
Li -1.12104 -1.54379 1.93687
Li -0.0852453 2.88787 -0.473852
Li 1.109 -2.03559 0.26893
Li 1.24551 -1.01138 -2.44514
Li -1.75591 -2.25961 -0.722125
Li -0.270235 0.0448693 -0.486427
Li 2.19576 0.647651 -0.2189
Li 0.364012 1.10485 1.89458
9
 Atoms. Timestep: 4550
Li -2.59061 1.00185 0.925549
Li -1.28284 -1.14366 1.96221
Li -0.0764402 2.77111 -0.540624
Li 1.55801 -2.19298 0.506378
Li 1.05296 -1.30638 -2.46778
Li -1.77349 -2.0039 -0.942104
Li -0.416217 0.170323 -0.555291
Li 2.43619 0.52124 -0.292999
Li 0.308914 1.04443 1.87907
9
 Atoms. Timestep: 4600
Li -2.45359 1.3407 0.77325
Li -1.30366 -1.22038 1.68826
Li 0.0634838 2.72946 -0.498054
Li 1.14002 -1.83399 0.505584
Li 1.02444 -1.40545 -2.19063
Li -1.77816 -2.14541 -1.19145
Li -0.300883 -0.0486081 -0.428047
Li 2.29057 0.506181 -0.342942
Li 0.430595 1.18242 1.93837
9
 Atoms. Timestep: 4650
Li -2.3706 1.52334 0.739084
Li -1.3957 -1.50388 1.80243
Li 0.105766 2.75192 -0.435831
Li 1.03705 -2.11288 0.548903
Li 1.24471 -1.24503 -2.29263
Li -1.58368 -2.24208 -1.07526
Li -0.515691 0.143161 -0.665908
Li 2.141 0.730859 -0.297991
Li 0.425127 1.1177 1.87883
9
 Atoms. Timestep: 4700
Li -2.51497 1.26722 0.95928
Li -1.29047 -1.29572 1.86511
Li -0.0342245 2.76772 -0.461425
Li 1.11723 -2.07202 0.246222
Li 1.33897 -1.04126 -2.45435
Li -1.54984 -2.35586 -0.785435
Li -0.332278 0.0871624 -0.533528
Li 2.26234 0.714907 -0.25425
Li 0.179443 0.884254 1.80727
9
 Atoms. Timestep: 4750
Li -2.47889 0.855984 0.858927
Li -1.13508 -1.33113 1.79866
Li -0.144799 2.65697 -0.493057
Li 1.1956 -1.8929 0.258386
Li 1.18738 -1.06901 -2.42724
Li -1.7527 -2.24316 -0.807823
Li -0.445233 0.0253585 -0.564639
Li 2.39067 0.524154 -0.261397
Li 0.426741 1.27201 2.17035
9
 Atoms. Timestep: 4800
Li -2.5655 1.09226 0.727322
Li -1.10067 -1.42592 1.84055
Li -0.0220628 2.77151 -0.460104
Li 1.22937 -2.10142 0.583215
Li 1.08419 -1.31715 -2.37268
Li -1.86544 -2.02935 -1.08494
Li -0.331859 0.0781825 -0.39207
Li 2.22956 0.556274 -0.30098
Li 0.533798 1.29645 1.88081
9
 Atoms. Timestep: 4850
Li -2.4391 1.40346 0.739267
Li -1.38366 -1.21363 1.87731
Li 0.101097 2.7722 -0.494174
Li 1.1286 -2.05133 0.480913
Li 1.10904 -1.38347 -2.2243
Li -1.77647 -2.10832 -1.21573
Li -0.360015 -0.0167977 -0.523314
Li 2.31594 0.698337 -0.329311
Li 0.404761 1.03406 1.91689
9
 Atoms. Timestep: 4900
Li -2.23755 1.31133 0.853973
Li -1.41171 -1.14381 1.74017
Li 0.0619869 2.7319 -0.489046
Li 0.982522 -1.86106 0.3779
Li 1.2755 -1.20127 -2.40564
Li -1.63383 -2.39486 -1.03875
Li -0.463406 0.0798281 -0.591582
Li 2.25184 0.636914 -0.285906
Li 0.280688 0.961868 2.07882
9
 Atoms. Timestep: 4950
Li -2.50653 1.18115 0.959312
Li -1.21789 -1.45443 1.76823
Li -0.0460866 2.8043 -0.41417
Li 1.19469 -2.06062 0.474616
Li 1.23995 -0.990257 -2.48718
Li -1.53838 -2.35869 -0.781623
Li -0.417435 0.159918 -0.598336
Li 2.12828 0.538314 -0.224578
Li 0.360784 1.0871 1.73758
9
 Atoms. Timestep: 5000
Li -2.57133 0.993188 0.799724
Li -1.05682 -1.34814 1.96526
Li -0.10694 2.78853 -0.492684
Li 1.24517 -2.05532 0.358326
Li 1.08913 -1.13483 -2.29552
Li -1.68305 -2.17274 -0.949252
Li -0.491286 0.00720709 -0.491959
Li 2.43262 0.588169 -0.312946
Li 0.379201 1.14861 1.93637
9
 Atoms. Timestep: 5050
Li -2.50853 1.09426 0.743488
Li -1.2089 -1.16785 1.87001
Li -0.0233009 2.67976 -0.570348
Li 1.12308 -2.01181 0.425412
Li 1.12323 -1.39953 -2.35486
Li -1.85622 -2.11079 -1.14783
Li -0.178906 0.161676 -0.364527
Li 2.3276 0.620698 -0.343685
Li 0.369326 1.11065 2.11254
9
 Atoms. Timestep: 5100
Li -2.35675 1.3216 0.797453
Li -1.44031 -1.30968 1.69591
Li 0.0900138 2.8427 -0.50592
Li 1.13611 -2.13893 0.602626
Li 1.14804 -1.25416 -2.38083
Li -1.75265 -2.1225 -1.04904
Li -0.389323 0.0715937 -0.561663
Li 2.29073 0.638267 -0.252864
Li 0.36923 1.0976 1.87102
9
 Atoms. Timestep: 5150
Li -2.33962 1.31092 0.872549
Li -1.28073 -1.32245 1.66527
Li 0.0380401 2.73309 -0.404838
Li 1.02839 -1.8384 0.348455
Li 1.22025 -1.05505 -2.306
Li -1.69836 -2.4278 -0.91254
Li -0.482941 0.0298726 -0.659326
Li 2.27666 0.585571 -0.220601
Li 0.365087 1.05649 1.90099
9
 Atoms. Timestep: 5200
Li -2.52758 1.1256 0.919756
Li -1.14302 -1.20758 1.91605
Li -0.0765627 2.58703 -0.428806
Li 1.18488 -1.95495 0.279974
Li 1.31815 -1.1421 -2.47226
Li -1.56869 -2.33452 -0.871324
Li -0.563742 0.120342 -0.613656
Li 2.21755 0.650334 -0.305796
Li 0.371611 1.02694 2.04226
9
 Atoms. Timestep: 5250
Li -2.53846 1.03025 0.858897
Li -1.20272 -1.33337 1.88553
Li -0.013669 2.88988 -0.475275
Li 1.16696 -2.13671 0.462816
Li 1.09826 -1.23146 -2.36263
Li -1.65397 -2.18059 -0.959813
Li -0.303327 -0.0764131 -0.369321
Li 2.29171 0.728865 -0.340259
Li 0.379345 1.15367 1.79069
9
 Atoms. Timestep: 5300