9
 Atoms. Timestep: 0
Li -1.668003 -2.560686 2.119093
Li -3.400654 -0.799409 0.478934
Li -0.061702 -0.937411 0.400716
Li 0.056117 -4.297308 0.381598
Li 1.701327 0.779722 -1.326191
Li 3.501451 2.520199 0.380062
Li -0.041641 2.552199 0.392164
Li 0.074505 2.567812 -3.002058
Li -1.513089 0.671431 -1.805987
9
 Atoms. Timestep: 10
Li -1.672794 -2.494211 2.157692
Li -3.402115 -0.772688 0.401426
Li 0.016896 -0.860024 0.394064
Li 0.000516 -4.208871 0.418390
Li 1.723684 0.822071 -1.307575
Li 3.431515 2.647445 0.456877
Li -0.058477 2.631704 0.436437
Li 0.016387 2.535259 -2.941737
Li -1.620661 0.652762 -1.888826
9
 Atoms. Timestep: 20
Li -1.747172 -2.582153 2.144744
Li -3.430007 -0.777181 0.438501
Li -0.049253 -0.844144 0.411165
Li 0.005694 -4.243072 0.428081
Li 1.783555 0.891066 -1.275337
Li 3.403701 2.529692 0.392432
Li 0.059005 2.633287 0.442706
Li 0.016282 2.500864 -3.034763
Li -1.660972 0.771820 -1.876831
9
 Atoms. Timestep: 30
Li -1.708752 -2.457492 2.094089
Li -3.379220 -0.787389 0.391638
Li 0.060025 -0.866678 0.326023
Li -0.002638 -4.286944 0.377263
Li 1.701468 0.796889 -1.242999
Li 3.402286 2.541529 0.371913
Li -0.006300 2.607635 0.452037
Li 0.039121 2.584027 -2.937241
Li -1.552413 0.648717 -1.750757
9
 Atoms. Timestep: 40
Li -1.738253 -2.564859 2.075271
Li -3.476576 -0.844906 0.414008
Li 0.085978 -0.858673 0.420306
Li 0.005988 -4.283605 0.432258
Li 1.690764 0.862223 -1.217518
Li 3.437888 2.553456 0.407149
Li -0.002867 2.620636 0.420115
Li -0.010089 2.586179 -2.932820
Li -1.570714 0.649646 -1.717913
9
 Atoms. Timestep: 50
Li -1.685891 -2.517240 2.171274
Li -3.385432 -0.894757 0.544650
Li -0.031988 -0.816352 0.475932
Li 0.102795 -4.238225 0.350953
Li 1.566013 0.839517 -1.275380
Li 3.429728 2.564603 0.487450
Li -0.051218 2.592842 0.382253
Li -0.009641 2.552119 -2.975891
Li -1.526022 0.676194 -1.791832
9
 Atoms. Timestep: 60
Li -1.751078 -2.530799 2.098572
Li -3.405842 -0.881876 0.422368
Li 0.002404 -0.853445 0.434447
Li 0.091960 -4.290299 0.454140
Li 1.736246 0.824492 -1.317077
Li 3.429023 2.513995 0.353957
Li -0.045175 2.549559 0.541744
Li 0.074285 2.509050 -2.919855
Li -1.532328 0.622930 -1.745545
9
 Atoms. Timestep: 70
Li -1.783374 -2.536801 2.115740
Li -3.345214 -0.870868 0.405907
Li -0.034633 -0.811696 0.414767
Li -0.033188 -4.277366 0.321339
Li 1.750642 0.943989 -1.387105
Li 3.346082 2.555065 0.368319
Li -0.057599 2.556773 0.479265
Li 0.128115 2.546342 -2.950065
Li -1.581410 0.759300 -1.800327
9
 Atoms. Timestep: 80
Li -1.771262 -2.590257 2.112858
Li -3.405048 -0.882201 0.508445
Li 0.087719 -0.710916 0.454001
Li 0.075606 -4.214232 0.473600
Li 1.672860 0.796299 -1.272205
Li 3.345028 2.552330 0.371736
Li -0.049116 2.532035 0.446034
Li 0.043983 2.511119 -2.905410
Li -1.539683 0.692497 -1.738405
9
 Atoms. Timestep: 90
Li -1.750670 -2.481068 2.262937
Li -3.439974 -0.890868 0.463596
Li -0.045309 -0.931279 0.463483
Li -0.032697 -4.235744 0.426705
Li 1.743040 0.879985 -1.217037
Li 3.393071 2.564181 0.437567
Li -0.045982 2.507093 0.428274
Li -0.003569 2.513753 -2.968865
Li -1.522280 0.698946 -1.723354
9
 Atoms. Timestep: 100
Li -1.791991 -2.520450 2.175191
Li -3.505384 -0.892919 0.338821
Li -0.050988 -0.864878 0.424127
Li 0.029435 -4.259770 0.460760
Li 1.724805 0.813028 -1.347558
Li 3.413403 2.447476 0.324922
Li -0.061808 2.586372 0.354166
Li 0.007349 2.533157 -2.940347
Li -1.583506 0.724407 -1.697825
9
 Atoms. Timestep: 110
Li -1.732771 -2.468509 2.138394
Li -3.376463 -0.874746 0.409633
Li 0.050943 -0.763776 0.472854
Li -0.093618 -4.312386 0.382569
Li 1.753280 0.794039 -1.267026
Li 3.418591 2.490603 0.474500
Li 0.005459 2.490692 0.398843
Li 0.009834 2.628167 -2.992706
Li -1.588009 0.665685 -1.766722
9
 Atoms. Timestep: 120
Li -1.714721 -2.431257 2.105181
Li -3.389414 -0.870837 0.400943
Li 0.053276 -0.828216 0.351675
Li 0.047040 -4.253391 0.424344
Li 1.748889 0.867616 -1.364613
Li 3.355780 2.418601 0.360127
Li -0.003521 2.521772 0.392493
Li 0.038739 2.517330 -2.995478
Li -1.571496 0.776770 -1.734600
9
 Atoms. Timestep: 130
Li -1.781745 -2.494255 2.027380
Li -3.372455 -0.899267 0.364337
Li -0.014467 -0.816124 0.395876
Li -0.009189 -4.223012 0.444672
Li 1.684854 0.856608 -1.349979
Li 3.230429 2.367971 0.338400
Li -0.049995 2.577203 0.407265
Li 0.068276 2.500243 -2.987746
Li -1.480810 0.689636 -1.876075
9
 Atoms. Timestep: 140
Li -1.602060 -2.477142 2.091401
Li -3.419091 -0.942785 0.353766
Li 0.066042 -0.716021 0.454902
Li 0.052748 -4.193335 0.469956
Li 1.668764 0.809045 -1.328268
Li 3.303971 2.416405 0.369055
Li 0.128447 2.545406 0.395625
Li 0.164366 2.637372 -2.871986
Li -1.565641 0.721600 -1.696833
9
 Atoms. Timestep: 150
Li -1.715404 -2.481658 2.160485
Li -3.339815 -0.831211 0.445404
Li -0.007378 -0.802040 0.432194
Li -0.051123 -4.325699 0.367188
Li 1.706664 0.856961 -1.306499
Li 3.321531 2.421899 0.348244
Li 0.009329 2.468950 0.376723
Li -0.039640 2.469988 -2.871469
Li -1.524728 0.727410 -1.677492
9
 Atoms. Timestep: 160
Li -1.690659 -2.416057 2.023563
Li -3.373263 -0.850712 0.470670
Li -0.094579 -0.775181 0.375699
Li 0.060541 -4.169544 0.503679
Li 1.632762 0.794903 -1.350249
Li 3.246058 2.421730 0.368283
Li 0.030827 2.504113 0.420543
Li 0.017790 2.596832 -2.916341
Li -1.445369 0.720048 -1.653706
9
 Atoms. Timestep: 170
Li -1.801403 -2.449173 2.053465
Li -3.345313 -0.816981 0.419001
Li 0.075685 -0.723798 0.401604
Li 0.082066 -4.210997 0.440039
Li 1.692564 0.822562 -1.276894
Li 3.261851 2.377267 0.383428
Li 0.000697 2.556050 0.316945
Li 0.143434 2.549992 -2.914828
Li -1.450635 0.783875 -1.772855
9
 Atoms. Timestep: 180
Li -1.704020 -2.407585 2.091841
Li -3.340169 -0.787431 0.508575
Li 0.019332 -0.672091 0.361132
Li 0.067048 -4.197090 0.345122
Li 1.641978 0.782434 -1.259256
Li 3.220057 2.349411 0.398749
Li 0.007567 2.532526 0.430189
Li 0.099825 2.379365 -2.856947
Li -1.459291 0.729810 -1.680955
9
 Atoms. Timestep: 190
Li -1.761117 -2.366810 2.087354
Li -3.305989 -0.876522 0.551038
Li -0.020723 -0.671577 0.372674
Li 0.001002 -4.099421 0.341349
Li 1.650045 0.695707 -1.317645
Li 3.194329 2.321581 0.359526
Li -0.009493 2.453868 0.343549
Li 0.102016 2.498229 -2.853287
Li -1.512835 0.676391 -1.658401
9
 Atoms. Timestep: 200
Li -1.736642 -2.324082 2.101161
Li -3.257230 -0.896951 0.471142
Li -0.103117 -0.602540 0.340299
Li 0.082923 -4.261492 0.445946
Li 1.702463 0.760071 -1.231568
Li 3.198264 2.307206 0.390889
Li 0.001137 2.453938 0.413265
Li 0.070072 2.433775 -2.944607
Li -1.483949 0.672943 -1.614192
9
 Atoms. Timestep: 210
Li -1.761400 -2.364173 2.173322
Li -3.345485 -0.904416 0.510597
Li 0.018216 -0.703652 0.356558
Li 0.005637 -4.200105 0.437765
Li 1.748427 0.780288 -1.378278
Li 3.130933 2.304432 0.320529
Li -0.046392 2.405180 0.317343
Li 0.179557 2.579229 -2.851977
Li -1.449239 0.656008 -1.599094
9
 Atoms. Timestep: 220
Li -1.689237 -2.365071 2.050416
Li -3.284781 -0.864876 0.467681
Li -0.051293 -0.643039 0.364782
Li 0.006857 -4.194408 0.458133
Li 1.708763 0.740967 -1.340633
Li 3.093527 2.220925 0.312797
Li -0.034786 2.351221 0.342042
Li 0.133236 2.531277 -2.821436
Li -1.427979 0.689649 -1.586879
9
 Atoms. Timestep: 230
Li -1.766476 -2.338726 2.043023
Li -3.348334 -0.854365 0.392296
Li -0.105092 -0.648855 0.340842
Li -0.008200 -4.077240 0.412862
Li 1.650368 0.657435 -1.430224
Li 3.085678 2.400391 0.423409
Li 0.064726 2.346070 0.355870
Li 0.133342 2.485869 -2.715871
Li -1.360566 0.698222 -1.597327
9
 Atoms. Timestep: 240
Li -1.731275 -2.326186 2.028756
Li -3.264878 -0.960992 0.530385
Li -0.070972 -0.560602 0.329548
Li 0.159335 -4.154895 0.471733
Li 1.683818 0.698425 -1.427893
Li 3.076820 2.280933 0.301983
Li -0.116143 2.396136 0.409057
Li 0.167098 2.391659 -2.834386
Li -1.412640 0.691675 -1.572499
9
 Atoms. Timestep: 250
Li -1.721601 -2.339391 2.058017
Li -3.268175 -0.882600 0.471917
Li -0.014708 -0.592139 0.314345
Li 0.120332 -4.140109 0.377931
Li 1.726984 0.732832 -1.376563
Li 2.930235 2.229560 0.365742
Li -0.035280 2.395246 0.385540
Li 0.203241 2.440458 -2.880417
Li -1.423782 0.758560 -1.626375
9
 Atoms. Timestep: 260
Li -1.763294 -2.214945 2.079612
Li -3.229142 -0.886801 0.517265
Li 0.010532 -0.491590 0.453692
Li 0.128649 -4.132976 0.398576
Li 1.608885 0.739612 -1.345758
Li 2.945858 2.239031 0.283665
Li -0.055296 2.340534 0.395651
Li 0.205144 2.406345 -2.701065
Li -1.465254 0.769275 -1.522835
9
 Atoms. Timestep: 270
Li -1.836653 -2.249567 1.983486
Li -3.180649 -0.918952 0.545226
Li 0.026195 -0.580397 0.284573
Li 0.066765 -4.089805 0.460277
Li 1.668711 0.674068 -1.388777
Li 3.033101 2.176564 0.352961
Li 0.051074 2.312070 0.283961
Li 0.232314 2.361607 -2.821944
Li -1.315983 0.753900 -1.450626
9
 Atoms. Timestep: 280
Li -1.740502 -2.265801 2.034673
Li -3.344969 -0.917400 0.546898
Li 0.020785 -0.552777 0.358595
Li 0.120754 -4.113246 0.377050
Li 1.655645 0.673599 -1.378762
Li 3.004313 2.165476 0.204018
Li -0.056019 2.363068 0.390881
Li 0.247305 2.438266 -2.646911
Li -1.402611 0.760113 -1.373512
9
 Atoms. Timestep: 290
Li -1.715711 -2.146336 2.040499
Li -3.256404 -0.940817 0.605419
Li 0.027268 -0.430449 0.339709
Li 0.093104 -4.050991 0.415006
Li 1.742995 0.668276 -1.400038
Li 2.863630 2.072538 0.297652
Li -0.029645 2.287400 0.395495
Li 0.203788 2.459101 -2.752818
Li -1.396410 0.621449 -1.501467
9
 Atoms. Timestep: 300
Li -1.812275 -2.065438 2.007885
Li -3.156243 -0.952048 0.641689
Li -0.007563 -0.437469 0.298161
Li 0.131562 -4.062202 0.471313
Li 1.717984 0.610228 -1.479575
Li 2.906763 2.144598 0.252309
Li -0.031223 2.280972 0.423830
Li 0.330220 2.354636 -2.750112
Li -1.368129 0.701457 -1.399332
9
 Atoms. Timestep: 310
Li -1.756458 -2.152524 2.028507
Li -3.184774 -0.976780 0.595411
Li 0.004979 -0.476250 0.285537
Li 0.105500 -3.961430 0.429382
Li 1.689538 0.644324 -1.327483
Li 2.800811 2.126950 0.315237
Li -0.026033 2.300586 0.299073
Li 0.196375 2.364916 -2.720231
Li -1.304814 0.772158 -1.357096
9
 Atoms. Timestep: 320
Li -1.828289 -2.120786 1.962991
Li -3.190137 -0.879799 0.646568
Li 0.113572 -0.450230 0.308383
Li 0.209498 -3.934000 0.427250
Li 1.620033 0.664285 -1.343970
Li 2.751993 2.046415 0.214555
Li 0.001465 2.240055 0.260068
Li 0.257497 2.377704 -2.660777
Li -1.356806 0.771208 -1.331041
9
 Atoms. Timestep: 330
Li -1.789938 -2.130137 1.963765
Li -3.103496 -1.008441 0.584787
Li 0.014195 -0.367470 0.215637
Li 0.148049 -3.889639 0.421963
Li 1.629168 0.571594 -1.398182
Li 2.861860 1.967261 0.363383
Li -0.049691 2.293196 0.340750
Li 0.278969 2.279428 -2.639660
Li -1.279964 0.782682 -1.316679
9
 Atoms. Timestep: 340
Li -1.698750 -2.151660 1.960010
Li -3.163843 -0.899338 0.622351
Li 0.017223 -0.469595 0.246087
Li 0.218686 -3.905496 0.434442
Li 1.635728 0.586287 -1.476195
Li 2.802391 1.940842 0.211943
Li 0.010377 2.251621 0.377607
Li 0.318788 2.350537 -2.539793
Li -1.303053 0.750928 -1.379398
9
 Atoms. Timestep: 350
Li -1.774576 -2.182860 2.004898
Li -3.138673 -0.980967 0.658105
Li 0.112478 -0.331559 0.264438
Li 0.145631 -3.969622 0.453604
Li 1.683966 0.603047 -1.472826
Li 2.722930 1.892794 0.158291
Li -0.023778 2.185187 0.347673
Li 0.287251 2.279130 -2.715536
Li -1.325830 0.753833 -1.226363
9
 Atoms. Timestep: 360
Li -1.846560 -1.895491 1.958348
Li -3.140880 -0.859467 0.623050
Li -0.077230 -0.332770 0.303486
Li 0.121056 -3.958749 0.543334
Li 1.656109 0.618277 -1.449654
Li 2.691306 1.917791 0.249019
Li -0.056283 2.125938 0.394041
Li 0.392309 2.235637 -2.569001
Li -1.182610 0.713793 -1.328814
9
 Atoms. Timestep: 370
Li -1.895442 -2.036435 1.933288
Li -3.151659 -0.984491 0.714052
Li -0.012522 -0.418179 0.229509
Li 0.219226 -3.955756 0.453454
Li 1.589783 0.572353 -1.361026
Li 2.588125 1.797756 0.158890
Li 0.044008 2.285763 0.324168
Li 0.377942 2.308859 -2.625820
Li -1.222995 0.755468 -1.211810
9
 Atoms. Timestep: 380
Li -1.825404 -1.980850 1.911009
Li -3.105387 -0.854937 0.688152
Li -0.050964 -0.299744 0.255145
Li 0.202825 -3.886277 0.419578
Li 1.644554 0.512561 -1.491278
Li 2.589708 1.842306 0.239634
Li -0.048974 2.189901 0.369269
Li 0.390097 2.218152 -2.604512
Li -1.245549 0.795684 -1.111372
9
 Atoms. Timestep: 390
Li -1.816415 -1.939224 1.972635
Li -3.044962 -0.985328 0.781038
Li -0.169825 -0.288686 0.226679
Li 0.218179 -3.909673 0.424855
Li 1.678594 0.588860 -1.496084
Li 2.589506 1.770455 0.254121
Li -0.068095 2.131478 0.233248
Li 0.362903 2.256528 -2.635298
Li -1.204517 0.779450 -1.105055
9
 Atoms. Timestep: 400
Li -1.806377 -1.891665 1.901209
Li -3.052969 -0.880477 0.697217
Li 0.031449 -0.187849 0.148193
Li 0.181030 -3.899998 0.465587
Li 1.657392 0.541432 -1.491353
Li 2.470211 1.745902 0.246166
Li -0.004069 2.192944 0.317252
Li 0.451459 2.175167 -2.500235
Li -1.132858 0.694213 -1.167149
9
 Atoms. Timestep: 410
Li -1.907878 -1.860398 1.950222
Li -2.995812 -0.978163 0.734072
Li -0.022584 -0.234530 0.220860
Li 0.258246 -3.936523 0.434007
Li 1.659031 0.510772 -1.557685
Li 2.478155 1.746011 0.174377
Li 0.008883 2.053183 0.267131
Li 0.364244 2.222505 -2.442764
Li -1.129985 0.715809 -1.044638
9
 Atoms. Timestep: 420
Li -1.899930 -1.780811 1.973615
Li -3.004479 -0.876013 0.691255
Li 0.017223 -0.177429 0.191922
Li 0.114094 -3.829609 0.356604
Li 1.604041 0.407472 -1.477667
Li 2.411336 1.636589 0.163970
Li 0.000101 2.070961 0.269397
Li 0.538500 2.201105 -2.441728
Li -1.223992 0.778279 -1.132443
9
 Atoms. Timestep: 430
Li -1.835494 -1.857468 1.868058
Li -2.969428 -0.982693 0.759837
Li 0.036497 -0.147027 0.217281
Li 0.210587 -3.756048 0.472002
Li 1.639502 0.544215 -1.516738
Li 2.401742 1.709975 0.112718
Li -0.016024 2.047695 0.365140
Li 0.455178 2.106349 -2.484282
Li -1.193108 0.843014 -1.004618
9
 Atoms. Timestep: 440
Li -1.860630 -1.832529 1.871231
Li -3.051172 -0.966004 0.744728
Li -0.008497 -0.097175 0.246324
Li 0.227173 -3.762536 0.409521
Li 1.625397 0.471783 -1.483988
Li 2.401148 1.528810 0.210002
Li -0.028690 2.029279 0.357495
Li 0.471790 2.111261 -2.358120
Li -1.049780 0.829248 -1.019551
9
 Atoms. Timestep: 450
Li -1.911384 -1.701380 1.862666
Li -2.841624 -0.979479 0.735653
Li 0.042642 -0.014522 0.213054
Li 0.340136 -3.818985 0.453774
Li 1.564655 0.404160 -1.539365
Li 2.335193 1.576049 0.059531
Li -0.155095 1.974035 0.232434
Li 0.562828 2.079142 -2.333572
Li -1.177983 0.705902 -1.012108
9
 Atoms. Timestep: 460
Li -1.919587 -1.656770 1.824315
Li -2.886547 -0.950793 0.689605
Li -0.018709 -0.067651 0.161523
Li 0.220112 -3.843929 0.360016
Li 1.561877 0.399876 -1.587034
Li 2.238227 1.552688 0.142495
Li 0.002248 2.050803 0.142920
Li 0.507739 2.207242 -2.427706
Li -1.072458 0.808479 -0.915384
9
 Atoms. Timestep: 470
Li -1.959260 -1.711471 1.771386
Li -2.984710 -0.941405 0.798754
Li 0.012119 -0.009930 0.119424
Li 0.249416 -3.787567 0.474452
Li 1.574406 0.371713 -1.569070
Li 2.145549 1.427433 0.132289
Li -0.112794 2.002948 0.273143
Li 0.462887 2.114555 -2.334530
Li -1.102894 0.830025 -0.949158
9
 Atoms. Timestep: 480
Li -1.988620 -1.652187 1.669755
Li -2.987996 -0.914918 0.801315
Li -0.013460 0.029231 0.223478
Li 0.332248 -3.794409 0.429238
Li 1.592632 0.264807 -1.548385
Li 2.240916 1.496279 0.104185
Li -0.130846 1.911160 0.177697
Li 0.560804 2.106209 -2.285784
Li -1.101456 0.777708 -0.835329
9
 Atoms. Timestep: 490
Li -1.976105 -1.683810 1.757216
Li -2.945118 -0.947589 0.786631
Li -0.078092 0.075086 0.202735
Li 0.292184 -3.710644 0.423743
Li 1.668441 0.335820 -1.535165
Li 2.145096 1.409590 0.095320
Li -0.063086 1.944142 0.179319
Li 0.636617 2.026472 -2.372896
Li -1.086411 0.876673 -0.788765
9
 Atoms. Timestep: 500
Li -1.928667 -1.636783 1.647941
Li -2.847253 -0.939715 0.822781
Li 0.014690 0.100604 0.179165
Li 0.324477 -3.732452 0.454739
Li 1.550408 0.210587 -1.647129
Li 2.087088 1.372944 0.054636
Li -0.079619 1.939453 0.203912
Li 0.671042 2.065562 -2.187551
Li -1.028033 0.734981 -0.818529
9
 Atoms. Timestep: 510
Li -1.856678 -1.574312 1.813106
Li -2.854301 -0.944978 0.872997
Li -0.025901 0.084203 0.141307
Li 0.346639 -3.687325 0.417157
Li 1.467890 0.232662 -1.643482
Li 1.982351 1.321622 0.084933
Li -0.017657 1.872931 0.211608
Li 0.608235 2.088702 -2.251675
Li -1.042238 0.794220 -0.762452
9
 Atoms. Timestep: 520
Li -2.000598 -1.526174 1.715063
Li -2.844939 -0.940247 0.902177
Li -0.093503 0.118232 0.119814
Li 0.280445 -3.714413 0.370769
Li 1.425142 0.274591 -1.616366
Li 2.005568 1.231315 0.009741
Li -0.082113 1.877263 0.199165
Li 0.597652 2.127146 -2.205255
Li -1.121413 0.882738 -0.609176
9
 Atoms. Timestep: 530
Li -1.941481 -1.468794 1.683263
Li -2.869302 -0.977424 0.865140
Li -0.034288 0.224203 0.089978
Li 0.331277 -3.565040 0.349479
Li 1.609756 0.300661 -1.618955
Li 1.939724 1.137933 -0.066576
Li -0.102780 1.858549 0.126003
Li 0.628147 1.985319 -2.203469
Li -1.019742 0.730590 -0.633642
9
 Atoms. Timestep: 540
Li -1.893562 -1.475177 1.759779
Li -2.735102 -0.963139 0.893677
Li -0.018233 0.182190 0.108014
Li 0.391766 -3.604024 0.439603
Li 1.532372 0.163237 -1.743425
Li 1.930961 1.170658 -0.073337
Li -0.117313 1.755056 0.257619
Li 0.746874 1.975864 -2.195893
Li -0.923966 0.862666 -0.751124
9
 Atoms. Timestep: 550
Li -1.942419 -1.417035 1.852568
Li -2.781775 -1.029439 0.940923
Li 0.025023 0.253987 0.130172
Li 0.417201 -3.466191 0.354227
Li 1.515461 0.261716 -1.783793
Li 1.863729 1.248596 -0.037836
Li -0.068472 1.806146 0.218860
Li 0.738391 1.930821 -2.186385
Li -0.925617 0.820657 -0.679725
9
 Atoms. Timestep: 560
Li -1.986563 -1.372347 1.681705
Li -2.770959 -1.056018 0.955973
Li 0.008410 0.300173 0.125616
Li 0.358374 -3.592273 0.481640
Li 1.615066 0.149774 -1.584516
Li 1.753183 1.118092 -0.059368
Li -0.070355 1.779768 0.236233
Li 0.761563 1.941865 -2.088051
Li -0.893383 0.872180 -0.681153
9
 Atoms. Timestep: 570
Li -2.008397 -1.405226 1.659423
Li -2.701329 -1.002622 0.966474
Li 0.009263 0.324140 0.041066
Li 0.470344 -3.559879 0.476466
Li 1.501336 0.264809 -1.606534
Li 1.737669 1.058615 -0.049052
Li -0.093687 1.796796 0.173189
Li 0.749992 1.902759 -2.177125
Li -0.951154 0.901353 -0.532109
9
 Atoms. Timestep: 580
Li -1.952038 -1.305931 1.682923
Li -2.686909 -0.980392 0.839121
Li 0.053785 0.404148 0.062296
Li 0.387159 -3.527527 0.363855
Li 1.610362 0.219193 -1.657532
Li 1.711430 0.998421 -0.073688
Li -0.051953 1.690673 0.079302
Li 0.776543 1.914215 -2.084692
Li -0.936643 0.867534 -0.493046
9
 Atoms. Timestep: 590
Li -1.961307 -1.267995 1.665798
Li -2.685125 -1.039085 1.025951
Li 0.067814 0.387439 0.125596
Li 0.514817 -3.515571 0.440381
Li 1.518363 0.092586 -1.717177
Li 1.645784 0.952940 -0.030533
Li -0.052499 1.725530 0.147000
Li 0.721159 1.878256 -2.048986
Li -0.837305 0.806985 -0.531285
9
 Atoms. Timestep: 600
Li -1.961876 -1.286464 1.714772
Li -2.667489 -1.034197 0.956508
Li -0.033855 0.443834 0.024412
Li 0.377016 -3.526322 0.360888
Li 1.512807 0.128472 -1.699615
Li 1.626605 0.920253 -0.113928
Li -0.106870 1.762275 0.194049
Li 0.860034 1.831132 -2.012769
Li -0.857000 0.840566 -0.410552
9
 Atoms. Timestep: 610
Li -2.114445 -1.185872 1.589185
Li -2.599502 -1.024048 0.958628
Li -0.011736 0.342140 0.096614
Li 0.385273 -3.540786 0.409359
Li 1.518125 0.070276 -1.678816
Li 1.542903 0.898447 -0.150736
Li -0.130104 1.696391 0.099358
Li 0.798836 1.803819 -2.065923
Li -0.879249 0.821809 -0.437171
9
 Atoms. Timestep: 620
Li -1.989104 -1.190580 1.598694
Li -2.697202 -1.077083 0.950025
Li 0.050680 0.480373 0.025878
Li 0.445140 -3.442166 0.407355
Li 1.520518 0.162234 -1.689309
Li 1.474566 0.876314 -0.079276
Li -0.099875 1.614477 0.099981
Li 0.813901 1.803391 -1.996112
Li -0.821855 0.957814 -0.463238
9
 Atoms. Timestep: 630
Li -2.083774 -1.147954 1.631292
Li -2.631944 -1.016903 1.009782
Li -0.012520 0.523967 -0.025597
Li 0.484095 -3.478479 0.549870
Li 1.491939 0.078187 -1.769052
Li 1.415148 0.881860 -0.194292
Li -0.183713 1.546319 0.104622
Li 0.936246 1.694667 -2.019182
Li -0.774166 0.827900 -0.242196
9
 Atoms. Timestep: 640
Li -1.989692 -1.023825 1.555662
Li -2.656850 -1.118009 1.018553
Li -0.025445 0.597461 0.035861
Li 0.395316 -3.424150 0.569529
Li 1.541913 -0.043508 -1.750460
Li 1.404941 0.722825 -0.073861
Li -0.091474 1.491010 0.031668
Li 0.849299 1.695948 -1.953197
Li -0.886441 0.923321 -0.349739
9
 Atoms. Timestep: 650
Li -1.883512 -1.049121 1.663329
Li -2.596189 -1.063081 1.046670
Li -0.043454 0.605211 -0.021764
Li 0.467191 -3.419602 0.415261
Li 1.499287 -0.000006 -1.767458
Li 1.389786 0.672581 -0.148920
Li -0.160088 1.603949 0.197090
Li 0.983478 1.738365 -1.952189
Li -0.863053 0.934419 -0.282098
9
 Atoms. Timestep: 660
Li -2.059001 -1.041724 1.487330
Li -2.549749 -0.995014 1.049399
Li 0.007967 0.679383 -0.046423
Li 0.455706 -3.363970 0.370304
Li 1.425351 -0.011205 -1.722308
Li 1.240760 0.630301 -0.169890
Li -0.097282 1.480755 0.052247
Li 0.958674 1.814431 -1.936423
Li -0.749930 0.773454 -0.224942
9
 Atoms. Timestep: 670
Li -2.031568 -0.974993 1.534311
Li -2.513612 -0.972340 1.086136
Li -0.042622 0.644144 -0.046603
Li 0.494199 -3.435719 0.393298
Li 1.474446 -0.019837 -1.776717
Li 1.227036 0.624648 -0.259211
Li -0.220851 1.493335 0.182426
Li 0.950186 1.735993 -1.810993
Li -0.792510 0.886492 -0.333202
9
 Atoms. Timestep: 680
Li -2.094455 -1.059077 1.511817
Li -2.530632 -1.064697 1.073954
Li -0.014693 0.676568 -0.036545
Li 0.552042 -3.415412 0.416886
Li 1.541943 0.015155 -1.749804
Li 1.146978 0.539236 -0.238464
Li -0.181986 1.424744 0.065124
Li 0.939965 1.719984 -1.891208
Li -0.670228 0.909543 -0.152303
9
 Atoms. Timestep: 690
Li -2.069242 -0.825934 1.551953
Li -2.469782 -1.108991 0.997674
Li 0.013972 0.756393 0.030176
Li 0.533989 -3.265072 0.433634
Li 1.506374 -0.128594 -1.801882
Li 1.076764 0.553297 -0.238283
Li -0.157679 1.453681 0.035970
Li 1.079922 1.732381 -1.813398
Li -0.610920 0.946211 -0.102226
9
 Atoms. Timestep: 700
Li -2.194625 -0.839276 1.492249
Li -2.443672 -1.083152 1.026167
Li -0.066744 0.817775 -0.013873
Li 0.526096 -3.318009 0.433018
Li 1.435770 -0.038692 -1.748601
Li 1.035717 0.572966 -0.172183
Li -0.210097 1.359275 0.088793
Li 1.090349 1.650407 -1.734003
Li -0.726012 0.876573 -0.110677
9
 Atoms. Timestep: 710
Li -2.104422 -0.821481 1.501784
Li -2.427425 -1.119222 1.119181
Li -0.012589 0.864961 -0.150058
Li 0.482122 -3.176149 0.424382
Li 1.438947 -0.156500 -1.815235
Li 1.046701 0.423447 -0.189330
Li -0.178638 1.404978 0.030665
Li 1.141222 1.638915 -1.701922
Li -0.558309 0.863677 -0.087892
9
 Atoms. Timestep: 720
Li -2.156013 -0.807004 1.399503
Li -2.401138 -1.102116 1.180986
Li -0.045305 0.787451 -0.070853
Li 0.563200 -3.229765 0.405166
Li 1.505654 -0.034784 -1.854754
Li 0.986970 0.421885 -0.281011
Li -0.172471 1.335031 0.072418
Li 1.215374 1.677807 -1.806824
Li -0.640179 0.883974 -0.068625
9
 Atoms. Timestep: 730
Li -2.155602 -0.687749 1.456625
Li -2.282581 -1.119613 1.158596
Li -0.014069 0.890382 -0.041543
Li 0.460116 -3.179704 0.472506
Li 1.562576 -0.092692 -1.840652
Li 1.044369 0.338973 -0.363549
Li -0.202874 1.338228 -0.021844
Li 1.102376 1.630838 -1.691080
Li -0.669196 0.837263 -0.017627
9
 Atoms. Timestep: 740
Li -2.083166 -0.616573 1.434797
Li -2.271720 -1.041475 1.125540
Li -0.058596 0.958239 0.011373
Li 0.601414 -3.062671 0.410682
Li 1.474739 -0.138253 -1.812927
Li 0.873556 0.205848 -0.299401
Li -0.135885 1.280223 0.088184
Li 1.161991 1.569522 -1.632268
Li -0.675657 0.899252 0.005028
9
 Atoms. Timestep: 750
Li -2.090310 -0.666286 1.386413
Li -2.286411 -1.102209 1.174371
Li -0.013518 0.959633 -0.070193
Li 0.594266 -3.110883 0.403154
Li 1.540832 -0.165761 -1.881341
Li 0.745576 0.157126 -0.240360
Li -0.241950 1.201011 -0.019162
Li 1.263152 1.574737 -1.639723
Li -0.596581 0.847516 0.135059
9
 Atoms. Timestep: 760
Li -2.132510 -0.587045 1.369795
Li -2.284327 -1.097229 1.279715
Li -0.038181 1.016478 -0.043633
Li 0.485875 -3.096295 0.468304
Li 1.394887 -0.177113 -1.886424
Li 0.741270 0.152327 -0.277285
Li -0.104529 1.315382 0.074932
Li 1.172229 1.590673 -1.540640
Li -0.607462 0.831136 0.124886
9
 Atoms. Timestep: 770
Li -2.145755 -0.578834 1.360155
Li -2.235012 -1.177107 1.189382
Li -0.091189 1.028163 -0.148121
Li 0.596799 -3.080563 0.386691
Li 1.396129 -0.146792 -1.874813
Li 0.727072 0.045628 -0.392578
Li -0.154190 1.138131 0.051955
Li 1.179659 1.457210 -1.575876
Li -0.613906 0.908025 0.182661
9
 Atoms. Timestep: 780
Li -2.101065 -0.533072 1.402087
Li -2.222502 -1.189225 1.269756
Li 0.007079 1.030886 -0.035135
Li 0.628613 -3.112675 0.489003
Li 1.446492 -0.296918 -1.879822
Li 0.730291 0.014697 -0.505149
Li -0.236682 1.150738 0.014516
Li 1.270970 1.438567 -1.594706
Li -0.600999 0.964373 0.248952
9
 Atoms. Timestep: 790
Li -2.164856 -0.577307 1.404666
Li -2.285239 -1.154712 1.251672
Li 0.053998 1.122828 -0.109963
Li 0.588035 -3.018526 0.448350
Li 1.453058 -0.222165 -1.948848
Li 0.594709 0.015334 -0.300346
Li -0.148022 1.256209 -0.055988
Li 1.242360 1.577649 -1.560241
Li -0.527319 0.872089 0.311438
9
 Atoms. Timestep: 800
Li -2.239516 -0.526882 1.267111
Li -2.203866 -1.175260 1.249743
Li -0.004656 1.076439 -0.071468
Li 0.584871 -2.987688 0.473477
Li 1.428254 -0.300301 -1.971498
Li 0.682563 -0.041659 -0.382719
Li -0.092067 1.130961 0.016875
Li 1.344898 1.479474 -1.512407
Li -0.544288 0.911462 0.347311
9
 Atoms. Timestep: 810
Li -2.154987 -0.467294 1.401816
Li -2.200549 -1.091537 1.281138
Li 0.107790 1.225356 -0.132693
Li 0.645954 -2.984046 0.451798
Li 1.361547 -0.176904 -1.944751
Li 0.457664 -0.055069 -0.348158
Li -0.202154 1.144178 0.015306
Li 1.306960 1.480683 -1.563132
Li -0.404662 0.992908 0.314766
9
 Atoms. Timestep: 820
Li -2.094458 -0.483780 1.278183
Li -2.145556 -1.171290 1.402286
Li 0.034725 1.137827 -0.104404
Li 0.640238 -3.087019 0.414359
Li 1.448686 -0.275823 -1.941027
Li 0.498584 -0.032781 -0.473435
Li -0.243617 1.174038 -0.070864
Li 1.396175 1.473526 -1.417193
Li -0.464125 0.916347 0.391409
9
 Atoms. Timestep: 830
Li -2.224614 -0.333637 1.359047
Li -2.117861 -1.072362 1.266177
Li -0.095017 1.232069 -0.139929
Li 0.669721 -2.890583 0.448916
Li 1.411158 -0.339705 -2.050925
Li 0.461192 -0.069715 -0.457097
Li -0.283459 1.112479 -0.149651
Li 1.418054 1.326999 -1.513129
Li -0.429291 0.994776 0.461144
9
 Atoms. Timestep: 840
Li -2.192101 -0.341976 1.221723
Li -2.119594 -1.138660 1.317288
Li -0.045114 1.211629 -0.145476
Li 0.651992 -3.014508 0.400763
Li 1.446528 -0.354137 -1.945870
Li 0.286176 -0.171484 -0.426379
Li -0.129079 1.070286 -0.049165
Li 1.469367 1.443803 -1.436362
Li -0.500644 0.856644 0.441056
9
 Atoms. Timestep: 850
Li -2.155235 -0.284165 1.310350
Li -2.035653 -1.056029 1.342465
Li 0.021226 1.385884 -0.174795
Li 0.723781 -2.887989 0.386506
Li 1.397932 -0.424308 -2.011789
Li 0.271057 -0.236824 -0.415083
Li -0.167536 1.026875 -0.032230
Li 1.473414 1.388985 -1.411640
Li -0.331534 0.954332 0.414331
9
 Atoms. Timestep: 860
Li -2.335616 -0.166944 1.327428
Li -2.135284 -1.139159 1.376835
Li 0.000346 1.344655 -0.161898
Li 0.751895 -2.927991 0.431821
Li 1.373792 -0.442572 -2.067136
Li 0.316551 -0.211471 -0.466383
Li -0.179305 0.952151 -0.102565
Li 1.447728 1.446296 -1.394398
Li -0.316876 0.965835 0.519454
9
 Atoms. Timestep: 870
Li -2.258691 -0.201629 1.254561
Li -2.093981 -1.190200 1.413032
Li -0.097351 1.406339 -0.225921
Li 0.757679 -2.922969 0.493375
Li 1.374725 -0.507855 -1.960404
Li 0.221739 -0.311477 -0.523209
Li -0.222685 0.972346 -0.045632
Li 1.542664 1.349471 -1.303098
Li -0.345970 0.905991 0.512441
9
 Atoms. Timestep: 880
Li -2.236111 -0.165079 1.233436
Li -2.060607 -1.155534 1.402091
Li -0.037027 1.468199 -0.246255
Li 0.659961 -2.804247 0.424241
Li 1.393914 -0.544513 -1.969925
Li 0.206283 -0.386496 -0.496123
Li -0.303690 0.931469 -0.015748
Li 1.528932 1.233298 -1.305870
Li -0.405093 0.960958 0.634941
9
 Atoms. Timestep: 890
Li -2.250018 -0.077248 1.211335
Li -2.058334 -1.203329 1.465046
Li -0.000222 1.425826 -0.194249
Li 0.787422 -2.880367 0.393847
Li 1.413694 -0.440853 -1.945885
Li 0.122571 -0.448563 -0.495398
Li -0.247113 0.918330 -0.115094
Li 1.570453 1.244374 -1.232825
Li -0.343038 0.904479 0.629911
9
 Atoms. Timestep: 900
Li -2.244402 -0.183222 1.297924
Li -1.969689 -1.212604 1.368327
Li -0.069827 1.501756 -0.176237
Li 0.751018 -2.878828 0.433164
Li 1.430087 -0.481665 -2.060572
Li 0.098962 -0.461877 -0.474400
Li -0.289303 0.972316 -0.068401
Li 1.460734 1.260550 -1.232717
Li -0.325140 0.930363 0.631748
9
 Atoms. Timestep: 910
Li -2.245656 -0.071750 1.178827
Li -1.902574 -1.179289 1.363129
Li -0.096333 1.509956 -0.190858
Li 0.766243 -2.794676 0.490017
Li 1.317004 -0.488972 -2.076248
Li 0.017838 -0.567305 -0.603298
Li -0.342845 0.854164 -0.203549
Li 1.475289 1.262945 -1.075639
Li -0.304631 0.989300 0.756490
9
 Atoms. Timestep: 920
Li -2.296250 -0.050608 1.320101
Li -1.963313 -1.172409 1.418831
Li -0.021954 1.566376 -0.267878
Li 0.800668 -2.790255 0.377262
Li 1.331065 -0.546212 -2.019322
Li -0.007604 -0.632340 -0.558093
Li -0.253338 0.855116 -0.153184
Li 1.644364 1.253672 -1.156972
Li -0.308188 0.938047 0.628292
9
 Atoms. Timestep: 930
Li -2.288059 0.045592 1.222648
Li -1.873812 -1.158577 1.454092
Li -0.036595 1.588881 -0.233221
Li 0.816396 -2.833606 0.398689
Li 1.309158 -0.522744 -2.065814
Li -0.139955 -0.565040 -0.452647
Li -0.285306 0.880246 -0.207258
Li 1.491960 1.153724 -1.100896
Li -0.280965 0.893635 0.756296
9
 Atoms. Timestep: 940
Li -2.289539 0.016492 1.159094
Li -1.936843 -1.232132 1.426943
Li 0.043474 1.723682 -0.313465
Li 0.809845 -2.703961 0.446554
Li 1.382125 -0.534466 -2.099140
Li -0.090050 -0.691191 -0.627646
Li -0.219333 0.808421 -0.145437
Li 1.698337 1.263576 -1.189307
Li -0.259356 0.965742 0.792402
9
 Atoms. Timestep: 950
Li -2.333551 -0.014900 1.199564
Li -2.025339 -1.098706 1.444927
Li -0.001644 1.605894 -0.241680
Li 0.798053 -2.679645 0.387224
Li 1.288058 -0.644516 -2.112514
Li -0.223692 -0.723650 -0.584272
Li -0.268683 0.806575 -0.229580
Li 1.664570 1.235976 -1.077809
Li -0.190841 0.994753 0.890427
9
 Atoms. Timestep: 960
Li -2.244782 0.159853 1.164672
Li -1.963820 -1.172120 1.494614
Li -0.008577 1.612890 -0.201934
Li 0.750205 -2.725294 0.503788
Li 1.390356 -0.579205 -2.056563
Li -0.184191 -0.692747 -0.651436
Li -0.149577 0.840586 -0.115862
Li 1.713997 1.215964 -1.121723
Li -0.218554 1.049387 0.833950
9
 Atoms. Timestep: 970
Li -2.338346 0.156779 1.167087
Li -1.843475 -1.117216 1.588784
Li 0.019673 1.706707 -0.277372
Li 0.858320 -2.694826 0.339402
Li 1.287982 -0.566637 -2.110517
Li -0.190648 -0.764066 -0.632296
Li -0.246152 0.721900 -0.229988
Li 1.670731 1.227971 -1.061105