# LAMMPS data file for 4 Li atoms

4 atoms
1 atom types

-8.427600 5.000000 xlo xhi
-9.282600 4.143100 ylo yhi
-4.572500 7.141300 zlo zhi

Masses

1 6.94

Atoms

1 1 -1.713800 -2.570700 2.141300
2 1 -3.427600 -0.856900 0.427500
3 1 0.000000 -0.856900 0.427500
4 1 0.000000 -4.282600 0.427500
