# LAMMPS data file for 5 Li atoms

5 atoms
1 atom types

-6.928000 6.921000 xlo xhi
-6.754200 5.940000 ylo yhi
-6.928000 6.921000 zlo zhi

Masses

1 6.94

Atoms

1 1 0.663000 -0.918000 0.663000
2 1 1.921000 -0.012000 -1.928000
3 1 -0.656000 0.940000 -0.656000
4 1 -1.928000 -0.012000 1.921000
5 1 -0.886500 -1.754200 -1.545500
