5
 Atoms. Timestep: 50
Li 1.08258 -0.652901 0.485404
Li 1.23013 -0.0299546 -1.72929
Li -0.30927 1.08982 -0.321664
Li -1.70145 -0.572229 1.06978
Li -1.0559 -1.32855 -0.818677
5
 Atoms. Timestep: 100
Li 2.69151 -0.789385 -0.911516
Li -0.408081 1.92657 -2.13467
Li 0.467265 1.15946 1.84601
Li -1.17458 -1.0531 1.93479
Li -1.3143 -0.727438 -0.279123
5
 Atoms. Timestep: 150
Li 2.91434 0.170966 -3.46332
Li -2.13085 3.19232 -0.259877
Li 1.98912 -0.355631 2.69518
Li 0.24697 -2.39221 1.52195
Li -2.14638 1.11048 1.0269
5
 Atoms. Timestep: 200
Li 1.4978 0.841668 -3.47952
Li -1.41091 2.5148 0.818224
Li 1.97597 -1.3562 1.01639
Li 0.540346 -2.32686 -1.80708
Li -2.42077 0.685625 3.76915
5
 Atoms. Timestep: 250
Li 0.618466 0.97716 -2.18461
Li 0.176087 1.12521 0.537815
Li 0.949733 -1.64582 -0.0977876
Li -0.703379 -1.16373 -3.0206
Li -1.7709 -0.739315 3.4924
5
 Atoms. Timestep: 300
Li 1.60719 1.26482 -3.24915
Li -0.381266 2.06807 0.589346
Li 1.0521 -2.57493 1.55368
Li -1.72397 -0.776071 -0.965397
Li -1.07487 -1.01448 1.16323
5
 Atoms. Timestep: 350
Li 2.76236 -0.310108 -2.10863
Li -1.12334 2.00361 -0.985671
Li 2.06142 -0.305984 2.33126
Li -1.78619 -1.00353 -2.18026
Li -1.49208 0.449432 3.67821
5
 Atoms. Timestep: 400
Li 2.40165 -1.29768 -0.600944
Li -0.92981 1.13712 -1.77164
Li 1.8571 1.98871 1.15487
Li 0.0293139 -1.86658 -0.8636
Li -2.6757 1.38708 3.26993
5
 Atoms. Timestep: 450
Li 2.65702 0.259224 -0.89465
Li -0.740392 0.266352 -1.26546
Li 1.10592 1.68918 0.502622
Li -0.597918 -2.58428 0.797773
Li -2.48633 0.245448 0.751451
5
 Atoms. Timestep: 500
Li 2.00201 1.32324 -2.61842
Li -0.492297 0.250468 -2.32884
Li 1.47533 0.137271 2.13228
Li -0.669686 -2.69509 0.592766
Li -2.97955 -0.332181 1.0641
5
 Atoms. Timestep: 550
Li 2.01289 0.642836 -3.36623
Li -0.882992 1.84997 -0.744041
Li 1.12079 -1.55463 1.99878
Li 0.251111 -2.02944 -0.999664
Li -2.76352 0.571386 2.65436
5
 Atoms. Timestep: 600
Li 2.52955 -0.666756 -2.14475
Li -1.10602 2.71808 1.26003
Li 0.649061 -0.892082 0.486268
Li -0.450526 -0.766745 -1.59278
Li -1.12372 0.591655 2.85888
5
 Atoms. Timestep: 650
Li 2.66271 -0.718334 -0.851989
Li -0.550419 2.04107 0.436488
Li 1.5322 1.00083 0.37397
Li -2.29879 -0.855135 -1.08913
Li -0.856988 -0.503323 1.98153
5
 Atoms. Timestep: 700
Li 1.94635 -0.437494 -1.54998
Li -0.953824 1.19285 -1.69497
Li 2.45698 1.52039 1.29197
Li -1.68885 -2.0942 -0.79442
Li -1.98963 -0.636657 2.34764
5
 Atoms. Timestep: 750
Li 1.48797 0.261252 -2.58752
Li -1.1488 0.913063 -1.89645
Li 1.20974 -0.174735 1.77143
Li 0.315405 -2.58172 -1.25446
Li -2.43138 0.458064 2.97813
5
 Atoms. Timestep: 800
Li 2.21108 0.226155 -2.3996
Li -1.11084 1.71791 -0.018581
Li -0.333408 -1.47739 1.20266
Li 1.06501 -1.3665 -0.73977
Li -1.89109 0.780604 1.8513
5
 Atoms. Timestep: 850
Li 2.71215 0.282933 -1.82282
Li 0.440535 2.81403 -0.295779
Li -0.12104 -1.7432 1.59408
Li 0.000440879 -0.551755 -0.998918
Li -2.53052 0.18852 2.39669
5
 Atoms. Timestep: 900
Li 1.97286 0.059475 -1.40364
Li 0.532246 1.9114 -0.976575
Li 1.65762 -0.334626 1.74561
Li -1.36002 -0.940204 -1.17895
Li -2.5036 -0.106158 2.33401
5
 Atoms. Timestep: 950
Li 1.45575 -0.912872 -1.63649
Li -1.45632 1.04402 -0.745775
Li 2.33374 1.49302 0.702
Li -1.25256 -2.03346 -0.321367
Li -1.4021 -0.228864 1.44068
5
 Atoms. Timestep: 1000
Li 1.39112 -0.502591 -1.94913
Li -2.04146 1.16768 -0.711858
Li 0.968796 0.938043 0.125053
Li 0.0400753 -2.41723 -0.0976915
Li -0.790554 -0.0427681 1.88007
5
 Atoms. Timestep: 1050
Li 1.90566 0.433628 -2.18579
Li -0.657707 2.06382 -0.677623
Li 0.426041 0.111403 1.09554
Li 0.54511 -2.41975 -0.909307
Li -2.12684 -0.00850653 2.8372
5
 Atoms. Timestep: 1100
Li 2.13141 0.611676 -1.78344
Li 0.570867 2.31947 -0.601609
Li 1.23943 0.149729 2.21073
Li -0.405514 -2.1872 -1.50931
Li -3.08798 -0.00873618 2.46391
5
 Atoms. Timestep: 1150
Li 1.98182 -0.357461 -1.51691
Li -0.0275344 1.52402 -0.198663
Li 1.64499 0.018333 1.41417
Li -1.38236 -0.950824 -0.639234
Li -2.08509 0.0248012 1.16959
5
 Atoms. Timestep: 1200
Li 1.70556 -0.874121 -2.18228
Li -1.04052 1.29938 -0.612623
Li 1.09231 -0.0650526 0.611997
Li -0.469657 -1.84659 -1.44626
Li -1.64046 0.786368 3.01373
5
 Atoms. Timestep: 1250
Li 2.16843 0.00781983 -2.83903
Li -1.06543 1.60994 -1.03011
Li 0.394832 -0.00953623 0.937987
Li -0.212182 -2.49603 -0.757068
Li -1.57738 0.308543 3.17912
5
 Atoms. Timestep: 1300
Li 1.9806 0.81416 -1.85972
Li -0.209489 1.6771 -0.629347
Li 0.992082 0.229637 1.18175
Li -0.442462 -1.7329 0.173692
Li -2.1308 -0.614138 1.46385
5
 Atoms. Timestep: 1350
Li 2.05975 0.0922248 -1.20548
Li -0.568426 1.77615 0.10033
Li 2.16525 0.397518 1.44719
Li -0.194418 -1.39261 -0.652791
Li -3.09629 -0.151277 0.947545
5
 Atoms. Timestep: 1400
Li 2.2448 -0.699181 -1.83759
Li -0.839017 1.56419 -0.139855
Li 1.50774 -0.0551201 1.26328
Li -0.601438 -1.25486 -1.14873
Li -2.31137 0.444433 1.86342
5
 Atoms. Timestep: 1450
Li 1.84129 -0.315234 -2.26725
Li -0.176137 1.43932 -1.23636
Li 0.306674 -0.289233 0.83135
Li -1.17644 -1.58301 -0.783029
Li -1.13616 0.0718366 2.86072
5
 Atoms. Timestep: 1500
Li 1.78567 0.0552072 -2.09154
Li -0.603974 1.84911 -1.01107
Li 1.21524 0.21798 0.810831
Li -1.216 -2.11219 -0.685458
Li -1.34508 -0.336883 2.69047
5
 Atoms. Timestep: 1550
Li 2.0256 -0.00180517 -1.64827
Li -1.15432 1.92361 0.161361
Li 1.73112 0.369884 0.945816
Li -0.138476 -1.59239 -0.279327
Li -2.22222 -0.223007 1.24084
5
 Atoms. Timestep: 1600
Li 2.00732 -0.0055765 -1.74975
Li -0.317642 1.70868 0.145494
Li 1.29015 0.322176 1.69115
Li -0.114349 -1.22035 -0.363526
Li -2.59285 -0.267408 0.750966
5
 Atoms. Timestep: 1650
Li 1.876 0.0322575 -2.01554
Li 0.106725 1.3937 -0.920104
Li 0.784197 -0.0022717 1.71464
Li -1.06989 -1.56759 -0.811903
Li -1.79061 -0.0432391 1.86911
5
 Atoms. Timestep: 1700
Li 2.0181 -0.387396 -2.17917
Li -0.932872 1.46672 -0.896387
Li 1.0942 -0.3394 0.420751
Li -0.973536 -1.61482 -0.738246
Li -1.50625 0.278569 2.86893
5
 Atoms. Timestep: 1750
Li 1.91938 -0.25263 -2.38584
Li -1.18509 1.37319 -0.22002
Li 1.46255 0.171283 0.830689
Li -0.502521 -1.57665 -0.483969
Li -1.75047 0.171713 2.16055
5
 Atoms. Timestep: 1800
Li 1.64118 0.201935 -1.97547
Li -0.113671 1.60173 -0.395229
Li 1.09678 0.565332 1.90382
Li -0.22645 -1.37188 -0.352419
Li -2.14063 -0.490121 1.26675
5
 Atoms. Timestep: 1850
Li 2.07652 -0.135912 -1.65666
Li -0.0893836 2.16402 -0.489942
Li 0.517648 0.035117 1.48653
Li -0.225303 -1.27881 -0.504364
Li -2.10023 -0.431679 1.47605
5
 Atoms. Timestep: 1900
Li 2.27539 -0.446627 -1.69114
Li -0.916133 1.77008 -0.324235
Li 1.12031 -0.097445 0.758631
Li -0.864604 -1.81595 -1.13689
Li -1.76914 0.28286 2.12422
5
 Atoms. Timestep: 1950
Li 1.72781 -0.149013 -2.14123
Li -1.01582 0.846983 -0.444914
Li 1.39125 0.0846057 0.825179
Li -0.890777 -1.78976 -0.857925
Li -1.45516 0.524944 2.19524
5
 Atoms. Timestep: 2000
Li 1.3114 0.247804 -2.19108
Li -0.417508 1.45875 -0.789505
Li 0.969933 0.122276 1.34653
Li -0.217172 -1.68415 -0.0490043
Li -1.61742 -0.0888118 1.73325
5
 Atoms. Timestep: 2050
Li 1.8707 0.00147568 -1.75204
Li -0.367963 2.42464 -0.377284
Li 1.01897 0.307277 1.49004
Li -0.0942225 -1.75789 -0.293113
Li -2.18228 -0.49227 1.35891
5
 Atoms. Timestep: 2100
Li 2.16381 -0.250258 -1.27169
Li -0.495325 1.8389 -0.131244
Li 0.992317 0.102518 0.892314
Li -0.580365 -1.41231 -0.906086
Li -1.9874 -0.0967276 1.57808
5
 Atoms. Timestep: 2150
Li 1.97829 -0.19193 -1.98876
Li -0.890563 1.29847 -0.733755
Li 1.0105 -0.569073 1.18561
Li -0.88226 -1.27862 -0.832578
Li -1.40152 0.371993 2.0454
5
 Atoms. Timestep: 2200
Li 1.35852 0.132383 -2.28568
Li -0.615046 1.66396 -0.945479
Li 1.12445 -0.39291 1.16925
Li -0.546757 -1.97872 -0.312794
Li -1.49821 0.222987 2.06547
5
 Atoms. Timestep: 2250
Li 1.4232 0.0873091 -1.77841
Li -0.343234 1.7974 -0.356359
Li 1.13748 0.375421 0.921878
Li -0.194107 -1.81491 -0.140089
Li -1.93204 -0.266547 1.51132
5
 Atoms. Timestep: 2300
Li 2.13148 -0.199532 -1.42941
Li -0.954821 1.92816 -0.303699
Li 1.38601 0.116117 1.37167
Li -0.338417 -1.18571 -0.594207
Li -2.01026 -0.237572 1.32779
5
 Atoms. Timestep: 2350
Li 2.27053 -0.116815 -1.602
Li -0.799706 1.36282 -0.535826
Li 0.930033 -0.288085 1.18481
Li -0.645734 -1.14389 -0.923283
Li -1.73612 0.221592 1.90867
5
 Atoms. Timestep: 2400
Li 1.49469 0.102986 -1.89864
Li -0.276028 1.53522 -0.752693
Li 0.844782 -0.285531 0.834586
Li -0.707663 -2.03271 -0.752976
Li -1.54848 0.29674 2.23321
5
 Atoms. Timestep: 2450
Li 1.31387 -0.112493 -2.0602
Li -0.536364 2.00611 -0.57374
Li 1.26596 -0.0430526 0.987814
Li -0.461238 -2.01237 -0.316643
Li -1.69278 -0.05893 1.76939
5
 Atoms. Timestep: 2500
Li 1.77614 -0.176124 -1.64893
Li -0.705576 1.54086 -0.214557
Li 1.20489 0.369911 1.10844
Li -0.205346 -1.29619 -0.377569
Li -1.93914 -0.181276 1.36009
5
 Atoms. Timestep: 2550
Li 2.28353 0.17388 -1.43281
Li -0.664438 1.2838 -0.621823
Li 1.20854 0.268665 1.36771
Li -0.513511 -1.45141 -0.930526
Li -2.14347 0.0607573 1.91406
5
 Atoms. Timestep: 2600
Li 1.84994 0.255771 -1.62239
Li -0.383245 1.45232 -0.84447
Li 0.868424 -0.300958 0.981581
Li -0.709177 -1.66856 -0.729627
Li -1.66601 0.180162 2.14434
5
 Atoms. Timestep: 2650
Li 1.39652 -0.205264 -2.0519
Li -0.497796 1.65861 -0.410138
Li 1.25406 -0.123227 0.919361
Li -0.898669 -1.73555 -0.516984
Li -1.43494 0.0456465 1.74383
5
 Atoms. Timestep: 2700
Li 1.45782 -0.375885 -1.9192
Li -0.606962 1.58325 -0.213596
Li 1.55939 0.331715 1.0533
Li -0.578811 -1.46732 -0.532986
Li -1.88003 -0.169899 1.52706
5
 Atoms. Timestep: 2750
Li 2.08458 0.184196 -1.54402
Li -0.567027 1.4047 -0.682215
Li 1.03353 0.159709 1.13414
Li -0.267371 -1.32217 -0.463856
Li -2.13336 -0.130897 1.8172
5
 Atoms. Timestep: 2800
Li 2.15481 0.509212 -1.48559
Li -0.537661 1.39826 -0.946059
Li 0.833318 -0.0896447 1.38587
Li -0.646178 -1.69191 -0.615188
Li -1.68296 0.112202 1.87164
5
 Atoms. Timestep: 2850
Li 1.57132 -0.00248194 -1.77563
Li -0.472246 1.37667 -0.385133
Li 1.25702 -0.181153 0.857323
Li -0.770042 -1.54482 -0.532761
Li -1.669 0.185686 1.69094
5
 Atoms. Timestep: 2900
Li 1.34274 -0.513963 -2.19602
Li -0.546124 1.67075 -0.246696
Li 1.50062 -0.0802846 0.846071
Li -0.550318 -1.24268 -0.415789
Li -1.90199 -0.142668 1.74146
5
 Atoms. Timestep: 2950
Li 1.80938 -0.138412 -1.95932
Li -0.499338 1.56737 -0.567023
Li 1.10879 0.226166 1.16805
Li -0.529379 -1.41964 -0.495854
Li -1.88445 -0.227552 1.86212
5
 Atoms. Timestep: 3000
Li 2.0608 0.445799 -1.28622
Li -0.539816 1.25261 -0.868785
Li 0.829589 0.103723 1.24919
Li -0.453956 -1.54352 -0.55787
Li -1.74427 0.0408725 1.72842
5
 Atoms. Timestep: 3050
Li 1.89356 0.30519 -1.49516
Li -0.675309 1.33079 -0.610847
Li 1.28271 -0.183671 1.17597
Li -0.459157 -1.50206 -0.524807
Li -1.97062 0.188632 1.57815
5
 Atoms. Timestep: 3100
Li 1.51881 -0.289017 -2.22906
Li -0.442344 1.60212 -0.212999
Li 1.16749 -0.11292 1.06863
Li -0.575737 -1.369 -0.498323
Li -1.77789 -0.0501681 1.67991
5
 Atoms. Timestep: 3150
Li 1.42692 -0.400119 -2.07359
Li -0.425836 1.77207 -0.506517
Li 1.09773 0.0252752 1.09024
Li -0.696988 -1.40756 -0.629605
Li -1.52224 -0.22992 1.9089
5
 Atoms. Timestep: 3200
Li 1.82382 0.171765 -1.40738
Li -0.619665 1.41136 -0.851104
Li 1.072 0.00276053 1.0359
Li -0.574279 -1.46351 -0.512945
Li -1.65418 -0.029959 1.81791
5
 Atoms. Timestep: 3250
Li 2.13565 0.458276 -1.58617
Li -0.617015 1.13623 -0.592528
Li 0.960846 0.0825105 1.33585
Li -0.42842 -1.59813 -0.443496
Li -1.91072 0.19684 1.53015
5
 Atoms. Timestep: 3300
Li 1.73448 0.0176441 -1.93247
Li -0.395187 1.60271 -0.481928
Li 1.03723 0.019396 1.26141
Li -0.429202 -1.59743 -0.461818
Li -1.92293 0.0039846 1.65657
5
 Atoms. Timestep: 3350
Li 1.32866 -0.373042 -1.89805
Li -0.35931 1.75971 -0.508005
Li 1.1689 -0.0488868 0.907682
Li -0.707848 -1.37316 -0.554142
Li -1.55173 -0.206698 1.84035
5
 Atoms. Timestep: 3400
Li 1.71986 -0.0226489 -1.77905
Li -0.601537 1.34381 -0.567579
Li 1.20569 -0.0128348 0.938305
Li -0.966823 -1.44093 -0.570529
Li -1.43859 -0.0304523 1.83627
5
 Atoms. Timestep: 3450
Li 2.02744 0.347799 -1.64534
Li -0.721397 1.24506 -0.638413
Li 1.00916 -0.0659971 1.18557
Li -0.404038 -1.56948 -0.480508
Li -1.83298 0.195368 1.71419
5
 Atoms. Timestep: 3500
Li 1.75235 0.146257 -1.55031
Li -0.433204 1.55073 -0.56506
Li 0.947593 0.145189 1.26648
Li -0.117561 -1.66993 -0.567395
Li -2.03114 0.0593453 1.62123
5
 Atoms. Timestep: 3550
Li 1.58205 -0.187871 -1.75849
Li -0.418211 1.72694 -0.481296
Li 1.09133 0.0857233 1.12911
Li -0.63066 -1.50526 -0.526703
Li -1.64038 -0.152923 1.60899
5
 Atoms. Timestep: 3600
Li 1.69242 -0.107941 -1.90509
Li -0.612381 1.41757 -0.499555
Li 1.2089 -0.218848 0.823965
Li -0.921378 -1.36487 -0.565009
Li -1.48745 0.0348861 1.93606
5
 Atoms. Timestep: 3650
Li 1.75194 0.143685 -1.79878
Li -0.640405 1.2835 -0.543504
Li 1.12371 -0.185127 0.98099
Li -0.550214 -1.56217 -0.690068
Li -1.72706 0.234966 1.97739
5
 Atoms. Timestep: 3700
Li 1.69755 0.139421 -1.57944
Li -0.500574 1.54024 -0.544568
Li 0.955207 0.140704 1.33796
Li -0.18473 -1.67811 -0.584906
Li -1.87116 0.0463024 1.538
5
 Atoms. Timestep: 3750
Li 1.75373 -0.0423576 -1.57449
Li -0.463608 1.64358 -0.534901
Li 0.995704 0.203736 1.22779
Li -0.387514 -1.43938 -0.345104
Li -1.80913 -0.191085 1.38136
5
 Atoms. Timestep: 3800
Li 1.76787 -0.0836689 -1.77643
Li -0.570796 1.40962 -0.568976
Li 1.26296 -0.0220737 0.987424
Li -0.691711 -1.47916 -0.681789
Li -1.81588 0.0791994 1.95616
5
 Atoms. Timestep: 3850
Li 1.62772 0.00694146 -1.90257
Li -0.610315 1.27314 -0.508609
Li 1.09404 -0.275797 0.881663
Li -0.618675 -1.46323 -0.728432
Li -1.60059 0.243613 2.06932
5
 Atoms. Timestep: 3900
Li 1.5733 0.0715327 -1.74232
Li -0.564982 1.59256 -0.509773
Li 1.08101 -0.0808656 1.22461
Li -0.50433 -1.60647 -0.568537
Li -1.59058 0.0102255 1.58556
5
 Atoms. Timestep: 3950
Li 1.71589 0.0122048 -1.50129
Li -0.39246 1.5956 -0.501897
Li 1.12575 0.258314 1.1588
Li -0.367635 -1.47273 -0.389908
Li -1.97881 -0.192067 1.41257
5
 Atoms. Timestep: 4000
Li 1.9257 -0.0488605 -1.70634
Li -0.609591 1.43129 -0.641107
Li 1.12937 0.0844054 1.18329
Li -0.435691 -1.38585 -0.516515
Li -1.9525 0.0304062 1.77976
5
 Atoms. Timestep: 4050
Li 1.73718 -0.0159201 -1.87245
Li -0.670469 1.31392 -0.571234
Li 1.01521 -0.172641 1.03886
Li -0.674986 -1.47358 -0.664788
Li -1.47649 0.208598 1.94766
5
 Atoms. Timestep: 4100
Li 1.43649 0.0223859 -1.76013
Li -0.493518 1.50755 -0.462664
Li 1.21908 -0.18362 0.890773
Li -0.677907 -1.57138 -0.60294
Li -1.57213 0.0489466 1.78087
5
 Atoms. Timestep: 4150
Li 1.62484 -0.00913458 -1.80192
Li -0.449173 1.62386 -0.442943
Li 1.21524 0.0358228 1.17615
Li -0.440006 -1.41681 -0.407966
Li -1.92546 -0.185379 1.52027
5
 Atoms. Timestep: 4200
Li 1.9308 -0.000200837 -1.68104
Li -0.541854 1.39296 -0.543362
Li 0.959233 0.228528 1.31952
Li -0.339651 -1.39197 -0.529254
Li -1.90954 -0.0354204 1.60589
5
 Atoms. Timestep: 4250
Li 1.81629 0.0362219 -1.53053
Li -0.66994 1.34978 -0.732416
Li 1.01445 -0.0035895 1.1191
Li -0.519586 -1.51268 -0.642163
Li -1.61569 0.178798 1.82974
5
 Atoms. Timestep: 4300
Li 1.55098 0.00959257 -1.86119
Li -0.530909 1.43409 -0.518924
Li 1.1863 -0.199921 0.955952
Li -0.692795 -1.50397 -0.531477
Li -1.59526 0.0965988 1.81257
5
 Atoms. Timestep: 4350
Li 1.54626 -0.0551436 -2.08522
Li -0.406973 1.52958 -0.31316
Li 1.15975 -0.0660371 1.13849
Li -0.614388 -1.40136 -0.484923
Li -1.74799 -0.134373 1.63368
5
 Atoms. Timestep: 4400
Li 1.74494 -0.0105579 -1.62798
Li -0.536412 1.53021 -0.5577
Li 1.04622 0.0705655 1.22415
Li -0.356121 -1.41377 -0.630272
Li -1.84928 -0.0807621 1.67706
5
 Atoms. Timestep: 4450
Li 1.96527 0.134033 -1.38184
Li -0.636444 1.3362 -0.729344
Li 0.941838 0.108127 1.11615
Li -0.489997 -1.51917 -0.559759
Li -1.69364 0.111041 1.7057
5
 Atoms. Timestep: 4500
Li 1.80025 0.0677246 -1.81391
Li -0.561754 1.33441 -0.600827
Li 1.15088 -0.0125473 1.11551
Li -0.681968 -1.50638 -0.422578
Li -1.7109 0.107883 1.71495
5
 Atoms. Timestep: 4550
Li 1.43153 -0.113556 -2.01193
Li -0.417659 1.53208 -0.389547
Li 1.2302 -0.125871 0.987645
Li -0.57527 -1.40244 -0.468453
Li -1.75329 -0.0594061 1.7343
5
 Atoms. Timestep: 4600
Li 1.55832 -0.0426175 -1.72873
Li -0.496455 1.58455 -0.431558
Li 1.15138 -0.0194664 1.05942
Li -0.583824 -1.501 -0.663126
Li -1.6661 -0.0960365 1.69932
5
 Atoms. Timestep: 4650
Li 1.9885 0.171616 -1.50804
Li -0.645032 1.37791 -0.646548
Li 0.976944 0.0440207 1.14093
Li -0.571935 -1.48648 -0.520663
Li -1.68319 0.0201429 1.64734
5
 Atoms. Timestep: 4700
Li 1.89921 0.10725 -1.61811
Li -0.567239 1.31469 -0.689793
Li 1.12646 0.0784286 1.14428
Li -0.479887 -1.46046 -0.433167
Li -1.90942 0.0949044 1.71652
5
 Atoms. Timestep: 4750
Li 1.48164 -0.139248 -1.85661
Li -0.443712 1.5259 -0.45408
Li 1.17378 0.0479683 1.08121
Li -0.49744 -1.50714 -0.519169
Li -1.74205 0.0155583 1.69949
5
 Atoms. Timestep: 4800
Li 1.50067 -0.096399 -1.87243
Li -0.540689 1.62741 -0.406131
Li 1.12048 -0.1348 1.01368
Li -0.64978 -1.47496 -0.54807
Li -1.50989 -0.0799651 1.67419
5
 Atoms. Timestep: 4850
Li 1.83454 0.144258 -1.6379
Li -0.570401 1.36642 -0.563331
Li 1.13219 -0.0761861 1.00268
Li -0.655651 -1.44627 -0.614652
Li -1.75124 -0.01109 1.79406
5
 Atoms. Timestep: 4900
Li 1.92793 0.141024 -1.60315
Li -0.564278 1.33668 -0.669218
Li 1.01745 0.0679402 1.22012
Li -0.433752 -1.47412 -0.533942
Li -1.87425 0.0711528 1.71282
5
 Atoms. Timestep: 4950
Li 1.62759 -0.0927914 -1.70133
Li -0.513469 1.56104 -0.543506
Li 1.00235 0.123562 1.21612
Li -0.368923 -1.52927 -0.442789
Li -1.69985 0.0298741 1.55388
5
 Atoms. Timestep: 5000
Li 1.49836 -0.103589 -1.80082
Li -0.483812 1.57102 -0.443239
Li 1.25058 0.000887118 0.98341
Li -0.637699 -1.51279 -0.495382
Li -1.67339 -0.0484757 1.67518
5
 Atoms. Timestep: 5050
Li 1.71159 0.0804043 -1.82954
Li -0.555969 1.36375 -0.506715
Li 1.1709 -0.18696 0.941433
Li -0.699016 -1.37798 -0.582933
Li -1.69495 -0.0146675 1.85948
5
 Atoms. Timestep: 5100
Li 1.85257 0.117565 -1.68583
Li -0.59277 1.41316 -0.589531
Li 0.989446 -0.056423 1.20611
Li -0.545425 -1.48823 -0.643628
Li -1.69093 0.0374644 1.73461
5
 Atoms. Timestep: 5150
Li 1.69117 -0.039212 -1.52098
Li -0.485801 1.52893 -0.554867
Li 1.0465 0.170849 1.17202
Li -0.366414 -1.53074 -0.504031
Li -1.81214 0.0132865 1.53488
5
 Atoms. Timestep: 5200
Li 1.66397 -0.0743129 -1.76716
Li -0.523205 1.52527 -0.547254
Li 1.19636 0.0797569 1.11184
Li -0.527189 -1.46432 -0.355469
Li -1.78487 -0.0187795 1.60097
5
 Atoms. Timestep: 5250
Li 1.69943 0.0323432 -1.91601
Li -0.566311 1.35007 -0.512332
Li 1.11636 -0.106553 1.02167
Li -0.678178 -1.44293 -0.574481
Li -1.6287 0.0514922 1.88039
5
 Atoms. Timestep: 5300
Li 1.67114 0.0713839 -1.67125
Li -0.5934 1.42947 -0.550701
Li 1.05876 -0.167625 1.02552
Li -0.584734 -1.47333 -0.739527
Li -1.60291 0.0369103 1.84609
5
 Atoms. Timestep: 5350
Li 1.7186 0.00418314 -1.58661
Li -0.533384 1.54637 -0.531632
Li 1.08455 0.0276511 1.18306
Li -0.454266 -1.47179 -0.553543
Li -1.78343 -0.044923 1.54388
5
 Atoms. Timestep: 5400
Li 1.76888 -0.0320205 -1.742
Li -0.460994 1.46123 -0.526082
Li 1.07453 0.175551 1.21978
Li -0.447761 -1.45627 -0.370594
Li -1.86765 -0.0178938 1.5349
5
 Atoms. Timestep: 5450
Li 1.66879 -0.0102372 -1.76179
Li -0.578261 1.40352 -0.644174
Li 1.13034 -0.0153931 1.10235
Li -0.508046 -1.47251 -0.543448
Li -1.70952 0.0991884 1.85209
5
 Atoms. Timestep: 5500
Li 1.63223 0.0238604 -1.72037
Li -0.61238 1.39412 -0.51626
Li 1.07585 -0.129134 0.960296
Li -0.648586 -1.46876 -0.691625
Li -1.50915 0.0551652 1.8591
5
 Atoms. Timestep: 5550
Li 1.71382 0.0174798 -1.77558
Li -0.539317 1.51541 -0.441639
Li 1.14567 -0.0641619 1.10752
Li -0.626854 -1.43639 -0.571954
Li -1.72564 -0.098258 1.6246
5
 Atoms. Timestep: 5600
Li 1.71693 -0.0128785 -1.67847
Li -0.430431 1.49753 -0.537659
Li 1.10577 0.0861919 1.1672
Li -0.397969 -1.41613 -0.452387
Li -1.94839 -0.0658535 1.58057
5
 Atoms. Timestep: 5650
Li 1.73776 -0.00508492 -1.6236
Li -0.559664 1.41425 -0.640066
Li 1.06769 0.119891 1.18365
Li -0.468573 -1.5284 -0.535042
Li -1.72165 0.107297 1.71112
5
 Atoms. Timestep: 5700
Li 1.71921 0.00917288 -1.71344
Li -0.660874 1.37865 -0.569511
Li 1.09686 -0.0625213 0.988661
Li -0.628796 -1.45228 -0.541266
Li -1.54222 0.093699 1.80726
5
 Atoms. Timestep: 5750
Li 1.62928 0.00352256 -1.84651
Li -0.516517 1.47518 -0.462259
Li 1.23735 -0.107343 0.997454
Li -0.657559 -1.40449 -0.558343
Li -1.75295 -0.0883539 1.76367
5
 Atoms. Timestep: 5800
Li 1.62218 -0.00918585 -1.75943
Li -0.412532 1.525 -0.459244
Li 1.08357 -0.00292261 1.15454
Li -0.480229 -1.43062 -0.551147
Li -1.82589 -0.109774 1.59206
5
 Atoms. Timestep: 5850
Li 1.77707 0.0157024 -1.57646
Li -0.583134 1.48311 -0.615299
Li 0.998688 0.0512204 1.2335
Li -0.439441 -1.51369 -0.53761
Li -1.69926 0.0683938 1.5891
5
 Atoms. Timestep: 5900
Li 1.80721 0.0311252 -1.61007
Li -0.608985 1.33184 -0.623054
Li 1.11932 0.0614536 1.02439
Li -0.557352 -1.46348 -0.50064
Li -1.71955 0.117508 1.77945
5
 Atoms. Timestep: 5950
Li 1.65432 -0.016195 -1.89543
Li -0.538578 1.44595 -0.522665
Li 1.1833 -0.0284351 1.06262
Li -0.626459 -1.42791 -0.502594
Li -1.70359 -0.0367529 1.80329
5
 Atoms. Timestep: 6000
Li 1.52811 -0.0386469 -1.82895
Li -0.465019 1.56227 -0.433625
Li 1.06814 -0.0759312 1.10597
Li -0.529216 -1.44566 -0.575274
Li -1.65543 -0.109693 1.63806
5
 Atoms. Timestep: 6050
Li 1.72074 0.0410475 -1.57254
Li -0.527746 1.48106 -0.526635
Li 1.09726 -0.00728247 1.12488
Li -0.521955 -1.52216 -0.62674
Li -1.76295 0.0159548 1.60962
5
 Atoms. Timestep: 6100
Li 1.91824 0.063463 -1.62541
Li -0.604088 1.34643 -0.64132
Li 1.04737 0.0323646 1.12059
Li -0.528093 -1.42549 -0.466254
Li -1.77725 0.0924143 1.70954
5
 Atoms. Timestep: 6150
Li 1.70888 -0.0215878 -1.78935
Li -0.542952 1.43507 -0.594044
Li 1.10361 0.0923561 1.1329
Li -0.576699 -1.47572 -0.477659
Li -1.66886 0.0153472 1.76919
5
 Atoms. Timestep: 6200
Li 1.45735 -0.0679401 -1.7715
Li -0.492383 1.55344 -0.461549
Li 1.15558 -0.0197013 1.02543
Li -0.531453 -1.47849 -0.56024
Li -1.63056 -0.0713295 1.69487
5
 Atoms. Timestep: 6250
Li 1.69674 0.0524947 -1.75293
Li -0.55186 1.48997 -0.453237
Li 1.12758 -0.118142 1.06593
Li -0.598144 -1.47942 -0.566066
Li -1.71667 -0.030697 1.63174
5
 Atoms. Timestep: 6300
Li 1.91209 0.0973657 -1.66409
Li -0.541068 1.34675 -0.598178
Li 1.02924 -0.00767938 1.14425
Li -0.584542 -1.44187 -0.55802
Li -1.7947 0.045033 1.71192
5
 Atoms. Timestep: 6350
Li 1.7311 -0.0265183 -1.59743
Li -0.535497 1.45283 -0.678834
Li 1.05035 0.0957599 1.14094
Li -0.471718 -1.45565 -0.512923
Li -1.72107 0.0368071 1.74015
5
 Atoms. Timestep: 6400
Li 1.56018 -0.0864711 -1.75865
Li -0.545344 1.54107 -0.49224
Li 1.14443 0.0796383 1.08396
Li -0.521301 -1.50014 -0.477607
Li -1.63074 -0.0217775 1.65638
5
 Atoms. Timestep: 6450
Li 1.64406 0.0331367 -1.85444
Li -0.542147 1.46472 -0.419184
Li 1.1668 -0.0922774 1.01682
Li -0.604386 -1.46942 -0.525613
Li -1.71116 -0.0308103 1.70007
5
 Atoms. Timestep: 6500
Li 1.76259 0.0922024 -1.67237
Li -0.531894 1.39336 -0.59082
Li 1.09266 -0.128733 1.08116
Li -0.578576 -1.41492 -0.645515
Li -1.77346 -0.00065583 1.77682
5
 Atoms. Timestep: 6550
Li 1.77961 -0.0197469 -1.57061
Li -0.534795 1.44547 -0.613979
Li 0.988018 0.0697796 1.17441
Li -0.509342 -1.45438 -0.59698
Li -1.69047 0.0222618 1.66398
5
 Atoms. Timestep: 6600
Li 1.68345 -0.0898171 -1.70439
Li -0.557416 1.51939 -0.527697
Li 1.14355 0.12617 1.12208
Li -0.472299 -1.47551 -0.417583
Li -1.7515 0.00840208 1.60664
5
 Atoms. Timestep: 6650
Li 1.60125 0.0114624 -1.82453
Li -0.527838 1.44227 -0.485264
Li 1.21757 -0.00991218 1.01618
Li -0.535566 -1.46684 -0.458135
Li -1.76357 0.00489884 1.7368
5
 Atoms. Timestep: 6700
Li 1.66652 0.0813164 -1.75454
Li -0.552432 1.39579 -0.531965
Li 1.09111 -0.121338 1.06845
Li -0.624928 -1.44868 -0.649346
Li -1.62753 -0.00258298 1.7843
5
 Atoms. Timestep: 6750
Li 1.77228 -0.00554919 -1.61219
Li -0.571958 1.47429 -0.565098
Li 1.03304 -0.0582421 1.10906
Li -0.558665 -1.42104 -0.635066
Li -1.68858 -0.018925 1.67834
5
 Atoms. Timestep: 6800
Li 1.74975 -0.070169 -1.65682
Li -0.498696 1.4824 -0.532194
Li 1.13801 0.116965 1.12678
Li -0.478647 -1.44605 -0.470668
Li -1.86963 -0.00442278 1.60323
5
 Atoms. Timestep: 6850
Li 1.64503 -0.0036816 -1.78845
Li -0.522937 1.43902 -0.54964
Li 1.13985 0.0693755 1.14486
Li -0.490309 -1.47324 -0.412962
Li -1.73644 0.0361943 1.66677
5
 Atoms. Timestep: 6900
Li 1.61731 0.0568825 -1.7438
Li -0.591528 1.42003 -0.559117
Li 1.09234 -0.0737823 1.05802
Li -0.575488 -1.47765 -0.589011
Li -1.56361 0.0310149 1.7966
5
 Atoms. Timestep: 6950
Li 1.72917 0.00921027 -1.68332
Li -0.572178 1.44371 -0.500063
Li 1.11233 -0.0746781 1.01748
Li -0.614623 -1.43105 -0.674895
Li -1.69797 -0.0348009 1.76465
5
 Atoms. Timestep: 7000
Li 1.77585 -0.0467273 -1.73298
Li -0.505427 1.48918 -0.510068
Li 1.07333 0.00332955 1.16593
Li -0.518275 -1.39469 -0.512578
Li -1.82486 -0.0518549 1.59002
5
 Atoms. Timestep: 7050
Li 1.65996 -0.0142402 -1.68716
Li -0.479418 1.46582 -0.57952
Li 1.07283 0.08993 1.20318
Li -0.456667 -1.49989 -0.47122
Li -1.75262 0.043644 1.6108
5
 Atoms. Timestep: 7100
Li 1.65619 0.0276883 -1.67578
Li -0.597132 1.42796 -0.579141
Li 1.1103 0.0200279 1.04503
Li -0.520874 -1.51021 -0.527101
Li -1.62582 0.0774 1.77574
5
 Atoms. Timestep: 7150
Li 1.7501 0.00957779 -1.79443
Li -0.640108 1.42572 -0.499034
Li 1.13557 -0.0656181 1.02434
Li -0.630765 -1.40311 -0.576209
Li -1.64523 -0.028747 1.79158
5
 Atoms. Timestep: 7200
Li 1.69737 -0.0221493 -1.75089
Li -0.480113 1.47851 -0.482625
Li 1.09171 -0.030933 1.10511
Li -0.586086 -1.40627 -0.587842
Li -1.75859 -0.0917887 1.65328
5
 Atoms. Timestep: 7250
Li 1.645 -0.0120368 -1.61951
Li -0.460512 1.52745 -0.582104
Li 1.06314 0.000531044 1.17113
Li -0.460904 -1.50328 -0.535684
Li -1.77314 0.0122489 1.58912
5
 Atoms. Timestep: 7300
Li 1.76404 0.0197833 -1.67833
Li -0.589669 1.42367 -0.563908
Li 1.06567 0.0553897 1.1086
Li -0.513075 -1.51537 -0.473061
Li -1.68385 0.0998844 1.68111
5
 Atoms. Timestep: 7350
Li 1.74494 0.0136179 -1.76717
Li -0.623189 1.37993 -0.55366
Li 1.16744 0.0317352 1.0373
Li -0.600122 -1.41116 -0.519657
Li -1.67957 0.00270061 1.819
5
 Atoms. Timestep: 7400
Li 1.60455 -0.0147221 -1.74761
Li -0.510105 1.50146 -0.523473
Li 1.11793 -0.046439 1.05396
Li -0.565377 -1.41413 -0.58119
Li -1.68301 -0.0994019 1.73482
5
 Atoms. Timestep: 7450
Li 1.64805 -0.00550146 -1.70004
Li -0.464545 1.53549 -0.487751
Li 1.04593 -0.0436223 1.15463
Li -0.536405 -1.51636 -0.583547
Li -1.71865 -0.022659 1.57133
5
 Atoms. Timestep: 7500
Li 1.78277 0.0149873 -1.65478
Li -0.544219 1.42464 -0.55676
Li 1.08756 -0.00375567 1.12044
Li -0.503468 -1.47427 -0.503822
Li -1.79857 0.084045 1.63611
5
 Atoms. Timestep: 7550
Li 1.75345 0.00488705 -1.68559
Li -0.592483 1.37925 -0.621043
Li 1.13646 0.074308 1.0872
Li -0.546902 -1.41843 -0.507252
Li -1.71207 0.0340825 1.79295
5
 Atoms. Timestep: 7600
Li 1.61575 -0.0174955 -1.76014
Li -0.552961 1.48911 -0.532408
Li 1.08595 0.0472741 1.0767
Li -0.56606 -1.46029 -0.543636
Li -1.58574 -0.0666437 1.7534
5
 Atoms. Timestep: 7650
Li 1.60722 -0.000826259 -1.74768
Li -0.518137 1.52719 -0.463268
Li 1.13773 -0.0814722 1.06909
Li -0.53241 -1.47635 -0.562271
Li -1.73207 -0.045063 1.63775
5
 Atoms. Timestep: 7700
Li 1.75243 0.0311528 -1.68628
Li -0.500082 1.40448 -0.510231
Li 1.11684 -0.057044 1.10838
Li -0.549898 -1.4544 -0.564384
Li -1.83343 0.0458547 1.62714
5
 Atoms. Timestep: 7750
Li 1.79374 1.66889e-05 -1.65317
Li -0.558142 1.4145 -0.636829
Li 1.03618 0.0395396 1.15285
Li -0.547476 -1.4351 -0.526343
Li -1.69292 0.0411495 1.71743
5
 Atoms. Timestep: 7800
Li 1.65227 -0.0360951 -1.68305
Li -0.570184 1.49126 -0.587685
Li 1.10669 0.0906924 1.0725
Li -0.518978 -1.46117 -0.512537
Li -1.63895 -0.0256291 1.76377
5
 Atoms. Timestep: 7850
Li 1.60316 0.00323176 -1.79923
Li -0.543451 1.46715 -0.443445
Li 1.18741 -0.00188564 1.04819
Li -0.537769 -1.46057 -0.515936
Li -1.72334 -0.0375885 1.68531
5
 Atoms. Timestep: 7900
Li 1.69911 0.0463152 -1.76921
Li -0.524089 1.43513 -0.497726
Li 1.10524 -0.114193 1.1182
Li -0.56476 -1.44335 -0.559526
Li -1.75115 0.0035805 1.64541
5
 Atoms. Timestep: 7950
Li 1.76287 0.000405499 -1.59874
Li -0.500161 1.44045 -0.623138
Li 1.01014 -0.0143147 1.12424
Li -0.561861 -1.45618 -0.614902
Li -1.71343 0.0228397 1.70755
5
 Atoms. Timestep: 8000
Li 1.74055 -0.0601621 -1.64338
Li -0.566646 1.46932 -0.596219
Li 1.09186 0.0929423 1.10993
Li -0.519998 -1.43956 -0.52738
Li -1.71057 0.00514394 1.71765
5
 Atoms. Timestep: 8050
Li 1.78737 0.0243327 -1.84341
Li -0.509317 1.53109 -0.493091
Li 1.04793 -0.0265426 1.03315
Li -0.524478 -1.54909 -0.519556
Li -1.81109 -0.000734801 1.80547
5
 Atoms. Timestep: 8100
Li 1.70511 -0.0463422 -1.74558
Li -0.58163 1.45947 -0.525119
Li 1.12356 0.0817206 1.0922
Li -0.500555 -1.42445 -0.458223
Li -1.71293 -0.00596444 1.69447
5
 Atoms. Timestep: 8150
Li 1.87672 0.0206386 -1.7882
Li -0.483387 1.59031 -0.557383
Li 0.981645 -0.0635385 1.03156
Li -0.544781 -1.59815 -0.592854
Li -1.85223 0.00515452 1.86774
5
 Atoms. Timestep: 8200
Li 1.79393 0.0280033 -1.84888
Li -0.511381 1.54029 -0.499907
Li 1.06059 -0.0193645 1.03654
Li -0.527126 -1.56903 -0.526713
Li -1.82379 0.00273104 1.82467
5
 Atoms. Timestep: 8250
Li 1.70459 -0.0467364 -1.74896
Li -0.571224 1.44758 -0.513837
Li 1.1172 0.0915492 1.09131
Li -0.503258 -1.42269 -0.460157
Li -1.71422 -0.00622174 1.68855
5
 Atoms. Timestep: 8300
Li 1.87067 0.0174124 -1.77974
Li -0.480024 1.58036 -0.549432
Li 0.964774 -0.0673305 1.01916
Li -0.541091 -1.58066 -0.585212
Li -1.83767 0.00205525 1.8538
5
 Atoms. Timestep: 8350
Li 1.79954 0.0313263 -1.85185
Li -0.514267 1.54929 -0.507321
Li 1.05572 -0.0284211 1.02362
Li -0.514008 -1.57154 -0.516949
Li -1.83292 0.0056153 1.84141
5
 Atoms. Timestep: 8400
Li 1.70457 -0.0469569 -1.75322
Li -0.574204 1.45122 -0.517647
Li 1.13182 0.0909115 1.10724
Li -0.508717 -1.42666 -0.466754
Li -1.72098 -0.00620266 1.68625
5
 Atoms. Timestep: 8450
Li 1.8654 0.0143308 -1.77386
Li -0.483419 1.57779 -0.547496
Li 0.976797 -0.056009 1.0376
Li -0.55999 -1.58592 -0.599541
Li -1.82334 -0.000774969 1.83975
5
 Atoms. Timestep: 8500
Li 1.80528 0.0347242 -1.85432
Li -0.512347 1.55271 -0.508518
Li 1.05113 -0.024966 1.01289
Li -0.509247 -1.58119 -0.514231
Li -1.8389 0.00866738 1.85633
5
 Atoms. Timestep: 8550
Li 1.70437 -0.0470098 -1.75629
Li -0.569057 1.4475 -0.514814