# LAMMPS data file for 3 Li atoms

3 atoms
1 atom types

0.0 20.0 xlo xhi
0.0 20.0 ylo yhi
0.0 20.0 zlo zhi

Masses

1 6.94

Atoms

1 1 1.000000 1.000000 1.000000
2 1 5.000000 5.000000 5.000000
3 1 10.000000 10.000000 10.000000
