3
 Atoms. Timestep: 1000
Li 1.41133 1.41133 1.41133
Li 4.62857 4.62857 4.62857
Li 9.96011 9.96011 9.96011
3
 Atoms. Timestep: 1010
Li 1.4146 1.4738 1.42421
Li 4.61028 4.51536 4.59487
Li 9.97512 10.0108 9.98092
3
 Atoms. Timestep: 1020
Li 1.41804 1.53643 1.43725
Li 4.59182 4.40199 4.56101
Li 9.99014 10.0616 10.0017
3
 Atoms. Timestep: 1030
Li 1.42169 1.59924 1.4505
Li 4.57317 4.28844 4.52695
Li 10.0051 10.1123 10.0225
3
 Atoms. Timestep: 1040
Li 1.42558 1.66227 1.464
Li 4.55426 4.17468 4.49265
Li 10.0202 10.163 10.0433
3
 Atoms. Timestep: 1050
Li 1.42978 1.72554 1.47779
Li 4.53506 4.06068 4.45806
Li 10.0352 10.2138 10.0642
3
 Atoms. Timestep: 1060
Li 1.43435 1.78909 1.49193
Li 4.51549 3.9464 4.42312
Li 10.0502 10.2645 10.085
3
 Atoms. Timestep: 1070
Li 1.43937 1.85296 1.5065
Li 4.49546 3.83181 4.38774
Li 10.0652 10.3152 10.1058
3
 Atoms. Timestep: 1080
Li 1.44494 1.91718 1.52159
Li 4.47489 3.71687 4.35185
Li 10.0802 10.366 10.1266
3
 Atoms. Timestep: 1090
Li 1.45119 1.9818 1.53731
Li 4.45364 3.60152 4.31534
Li 10.0952 10.4167 10.1474
3
 Atoms. Timestep: 1100
Li 1.45824 2.04685 1.55378
Li 4.43158 3.48574 4.27806
Li 10.1102 10.4674 10.1682
3
 Atoms. Timestep: 1110
Li 1.46629 2.11239 1.57116
Li 4.40853 3.36948 4.23988
Li 10.1252 10.5181 10.189
3
 Atoms. Timestep: 1120
Li 1.47553 2.17843 1.58962
Li 4.38428 3.25272 4.20062
Li 10.1402 10.5689 10.2098
3
 Atoms. Timestep: 1130
Li 1.48623 2.245 1.60939
Li 4.35858 3.13541 4.16005
Li 10.1552 10.6196 10.2306
3
 Atoms. Timestep: 1140
Li 1.49867 2.31212 1.6307
Li 4.33114 3.01757 4.11793
Li 10.1702 10.6703 10.2514
3
 Atoms. Timestep: 1150
Li 1.51321 2.37975 1.65385
Li 4.3016 2.89922 4.07398
Li 10.1852 10.721 10.2722
3
 Atoms. Timestep: 1160
Li 1.53023 2.44784 1.67917
Li 4.26957 2.7804 4.02786
Li 10.2002 10.7718 10.293
3
 Atoms. Timestep: 1170
Li 1.55021 2.51628 1.70701
Li 4.23459 2.66124 3.97922
Li 10.2152 10.8225 10.3138
3
 Atoms. Timestep: 1180
Li 1.57363 2.5849 1.73777
Li 4.19616 2.54189 3.92766
Li 10.2302 10.8732 10.3346
3
 Atoms. Timestep: 1190
Li 1.60104 2.65345 1.77186
Li 4.15375 2.42261 3.87277
Li 10.2452 10.9239 10.3554
3
 Atoms. Timestep: 1200
Li 1.63296 2.72158 1.80965
Li 4.10683 2.30375 3.81418
Li 10.2602 10.9747 10.3762
3
 Atoms. Timestep: 1210
Li 1.66979 2.78888 1.85143
Li 4.05499 2.18573 3.75159
Li 10.2752 11.0254 10.397
3
 Atoms. Timestep: 1220
Li 1.7117 2.85489 1.89725
Li 3.99808 2.069 3.68498
Li 10.2902 11.0761 10.4178
3
 Atoms. Timestep: 1230
Li 1.75825 2.91931 1.9467
Li 3.93653 1.95384 3.61472
Li 10.3052 11.1268 10.4386
3
 Atoms. Timestep: 1240
Li 1.80803 2.98234 1.99863
Li 3.87174 1.84009 3.54199
Li 10.3202 11.1776 10.4594
3
 Atoms. Timestep: 1250
Li 1.85827 3.04518 2.05092
Li 3.8065 1.72653 3.4689
Li 10.3352 11.2283 10.4802
3
 Atoms. Timestep: 1260
Li 1.90523 3.11032 2.10082
Li 3.74454 1.61066 3.39819
Li 10.3502 11.279 10.501
3
 Atoms. Timestep: 1270
Li 1.94599 3.18057 2.14637
Li 3.68877 1.48969 3.33184
Li 10.3652 11.3297 10.5218
3
 Atoms. Timestep: 1280
Li 1.98066 3.25668 2.18777
Li 3.6391 1.36285 3.26964
Li 10.3802 11.3805 10.5426
3
 Atoms. Timestep: 1290
Li 2.01208 3.33641 2.22703
Li 3.59268 1.23239 3.20959
Li 10.3952 11.4312 10.5634
3
 Atoms. Timestep: 1300
Li 2.04348 3.41608 2.26626
Li 3.54628 1.102 3.14955
Li 10.4102 11.4819 10.5842
3
 Atoms. Timestep: 1310
Li 2.07691 3.49255 2.30668
Li 3.49784 0.974804 3.08833
Li 10.4253 11.5326 10.605
3
 Atoms. Timestep: 1320
Li 2.11318 3.56399 2.34866
Li 3.44656 0.852638 3.02555
Li 10.4403 11.5834 10.6258
3
 Atoms. Timestep: 1330
Li 2.15229 3.62966 2.39208
Li 3.39245 0.736246 2.96133
Li 10.4553 11.6341 10.6466
3
 Atoms. Timestep: 1340
Li 2.19389 3.6895 2.43664
Li 3.33585 0.625673 2.89596
Li 10.4703 11.6848 10.6674
3
 Atoms. Timestep: 1350
Li 2.23755 3.74386 2.48204
Li 3.27718 0.520592 2.82977
Li 10.4853 11.7356 10.6882
3
 Atoms. Timestep: 1360
Li 2.28283 3.79323 2.52798
Li 3.2169 0.420499 2.76302
Li 10.5003 11.7863 10.709
3
 Atoms. Timestep: 1370
Li 2.32933 3.83817 2.57423
Li 3.1554 0.32483 2.69597
Li 10.5153 11.837 10.7298
3
 Atoms. Timestep: 1380
Li 2.37675 3.87925 2.62062
Li 3.09297 0.233022 2.62878
Li 10.5303 11.8877 10.7506
3
 Atoms. Timestep: 1390
Li 2.42483 3.917 2.66702
Li 3.02989 0.144547 2.56158
Li 10.5453 11.9385 10.7714
3
 Atoms. Timestep: 1400
Li 2.47336 3.9519 2.71334
Li 2.96635 0.0589209 2.49445
Li 10.5603 11.9892 10.7922
3
 Atoms. Timestep: 1410
Li 2.52221 3.98438 2.75953
Li 2.90251 -0.024284 2.42746
Li 10.5753 12.0399 10.813
3
 Atoms. Timestep: 1420
Li 2.57125 4.01481 2.80555
Li 2.83846 -0.105443 2.36064
Li 10.5903 12.0906 10.8338
3
 Atoms. Timestep: 1430
Li 2.62041 4.04353 2.85139
Li 2.7743 -0.184883 2.294
Li 10.6053 12.1414 10.8546
3
 Atoms. Timestep: 1440
Li 2.66962 4.0708 2.89704
Li 2.71009 -0.26288 2.22755
Li 10.6203 12.1921 10.8754
3
 Atoms. Timestep: 1450
Li 2.71884 4.09686 2.9425
Li 2.64586 -0.339672 2.16129
Li 10.6353 12.2428 10.8962
2
 Atoms. Timestep: 1460
Li 2.76805 4.12218 2.98784
Li 10.6503 12.2935 10.917
2
 Atoms. Timestep: 1470
Li 2.81726 4.14747 3.03317
Li 10.6653 12.3443 10.9378
2
 Atoms. Timestep: 1480
Li 2.86647 4.17276 3.07849
Li 10.6803 12.395 10.9586
2
 Atoms. Timestep: 1490
Li 2.91569 4.19805 3.12382
Li 10.6953 12.4457 10.9794
