3
 Atoms. Timestep: 20
Li -1.15267 -0.937641 -4.89968e-18
Li 1.5882 -0.975151 -4.89932e-18
Li 0.185289 1.43677 3.18335e-22
3
 Atoms. Timestep: 40
Li -0.194444 -0.153425 -8.81235e-18
Li 2.348 -0.21468 -8.79332e-18
Li 1.02373 2.04973 3.36938e-20
3
 Atoms. Timestep: 60
Li 0.816264 0.682984 -7.14168e-18
Li 3.2682 0.662934 -7.00664e-18
Li 2.02478 2.81028 3.28192e-19
3
 Atoms. Timestep: 80
Li 1.17511 1.00204 -1.03567e-18
Li 3.7927 1.0506 -7.94063e-19
Li 2.5258 3.27197 8.24942e-19
3
 Atoms. Timestep: 100
Li 0.721854 0.64215 5.70767e-18
Li 3.5187 0.713564 5.89607e-18
Li 2.18204 3.06496 8.64281e-19
3
 Atoms. Timestep: 120
Li -0.207155 -0.139119 8.70462e-18
Li 2.58446 -0.101133 8.73278e-18
Li 1.22163 2.27776 3.24674e-19
3
 Atoms. Timestep: 140
Li -1.00391 -0.830728 5.99843e-18
Li 1.601 -0.854945 5.86039e-18
Li 0.277775 1.42406 -4.52314e-19
3
 Atoms. Timestep: 160
Li -1.19215 -1.00883 -5.71241e-19
Li 1.25061 -1.06763 -8.14644e-19
Li -0.0215243 1.10764 -1.04217e-18
3
 Atoms. Timestep: 180
Li -0.725455 -0.606418 -6.74718e-18
Li 1.8247 -0.623216 -6.96304e-18
Li 0.534998 1.60894 -9.56745e-19
3
 Atoms. Timestep: 200
Li 0.14673 0.151525 -8.57286e-18
Li 2.90473 0.199723 -8.613e-18
Li 1.56717 2.54688 -9.83363e-20
3
 Atoms. Timestep: 220
Li 0.914096 0.806136 -4.78795e-18
Li 3.73078 0.881695 -4.64808e-18
Li 2.38757 3.24755 8.69927e-19
3
 Atoms. Timestep: 240
Li 1.08171 0.932841 2.13862e-18
Li 3.75439 0.977671 2.34928e-18
Li 2.4568 3.24469 1.27834e-18
3
 Atoms. Timestep: 260
Li 0.513391 0.433336 7.6815e-18
Li 2.98715 0.408987 7.82998e-18
Li 1.72941 2.57176 8.00589e-19
3
 Atoms. Timestep: 280
Li -0.498707 -0.416718 8.40883e-18
Li 1.99758 -0.475967 8.32754e-18
Li 0.698485 1.74726 -5.79223e-19
3
 Atoms. Timestep: 300
Li -1.28054 -1.05565 3.87894e-18
Li 1.4175 -1.08034 3.48227e-18
Li 0.0472773 1.29149 -1.95362e-18
3
 Atoms. Timestep: 320
Li -1.24339 -1.01488 -3.14796e-18
Li 1.56501 -0.982619 -3.62673e-18
Li 0.188624 1.42814 -2.10797e-18
3
 Atoms. Timestep: 340
Li -0.39193 -0.30848 -8.10605e-18
Li 2.32839 -0.243696 -8.35845e-18
Li 1.02399 2.0508 -8.76858e-19
3
 Atoms. Timestep: 360
Li 0.702068 0.59348 -7.76876e-18
Li 3.22594 0.634279 -7.68142e-18
Li 1.99905 2.77468 1.02539e-18
3
 Atoms. Timestep: 380
Li 1.25883 1.06338 -2.49627e-18
Li 3.73451 1.03392 -2.2038e-18
Li 2.47113 3.20271 2.64824e-18
3
 Atoms. Timestep: 400
Li 0.886233 0.771876 4.24455e-18
Li 3.52885 0.705568 4.59345e-18
Li 2.15033 3.06377 2.82094e-18
3
 Atoms. Timestep: 420
Li -0.103582 -0.0498112 8.18963e-18
Li 2.67631 -0.0941712 8.37269e-18
Li 1.24821 2.36886 1.15436e-18
3
 Atoms. Timestep: 440
Li -1.03002 -0.841833 6.77011e-18
Li 1.71143 -0.830798 6.65734e-18
Li 0.350387 1.54347 -1.27313e-18
3
 Atoms. Timestep: 460
Li -1.29059 -1.08626 9.27383e-19
Li 1.27632 -1.03045 6.00649e-19
Li 0.0411124 1.13935 -2.90092e-18
3
 Atoms. Timestep: 480
Li -0.760126 -0.646535 -5.48605e-18
Li 1.71567 -0.611305 -5.79652e-18
Li 0.508124 1.49318 -2.70741e-18
3
 Atoms. Timestep: 500
Li 0.17262 0.164117 -8.35348e-18
Li 2.78018 0.12866 -8.48615e-18
Li 1.4456 2.41947 -5.8562e-19
3
 Atoms. Timestep: 520
Li 0.945759 0.838229 -5.82577e-18
Li 3.70181 0.76233 -5.67237e-18
Li 2.25807 3.2278 2.06455e-18
3
 Atoms. Timestep: 540
Li 1.08882 0.95501 4.94524e-19
Li 3.8395 0.896511 8.59894e-19
Li 2.41357 3.34503 3.38143e-18
3
 Atoms. Timestep: 560
Li 0.5083 0.439079 6.48044e-18
Li 3.1051 0.442284 6.82737e-18
Li 1.80954 2.6956 2.48034e-18
3
 Atoms. Timestep: 580
Li -0.451232 -0.389383 8.26524e-18
Li 2.02471 -0.333128 8.40562e-18
Li 0.835487 1.75568 -1.90771e-19
3
 Atoms. Timestep: 600
Li -1.20656 -1.00981 4.80196e-18
Li 1.37322 -0.978719 4.83553e-18
Li 0.110357 1.22234 -3.26984e-18
3
 Atoms. Timestep: 620
Li -1.22206 -0.995448 -1.70521e-18
Li 1.52362 -1.02843 -1.7161e-18
Li 0.12236 1.38166 -4.48776e-18
3
 Atoms. Timestep: 640
Li -0.447004 -0.335343 -7.07584e-18
Li 2.32275 -0.407652 -7.12444e-18
Li 0.875342 2.06491 -2.78637e-18
3
 Atoms. Timestep: 660
Li 0.61295 0.538048 -7.81559e-18
Li 3.24038 0.48113 -7.85522e-18
Li 1.87731 2.81748 7.51369e-19
3
 Atoms. Timestep: 680
Li 1.23012 1.03257 -3.52702e-18
Li 3.70436 1.04071 -3.48363e-18
Li 2.47409 3.17955 3.93606e-18
3
 Atoms. Timestep: 700
Li 0.941742 0.794719 2.88971e-18
Li 3.48224 0.853171 2.97118e-18
Li 2.26239 2.99541 4.91142e-18
3
 Atoms. Timestep: 720
Li -0.0298502 0.00201714 7.35319e-18
Li 2.70056 0.0414525 7.3854e-18
Li 1.36949 2.36646 2.80349e-18
3
 Atoms. Timestep: 740
Li -0.993087 -0.79706 6.99642e-18
Li 1.80594 -0.811552 6.96857e-18
Li 0.394095 1.62728 -1.15975e-18
3
 Atoms. Timestep: 760
Li -1.30704 -1.07463 2.06042e-18
Li 1.36942 -1.13208 1.98574e-18
Li -0.0182491 1.24396 -4.36529e-18
3
 Atoms. Timestep: 780
Li -0.791235 -0.665881 -4.18075e-18
Li 1.69484 -0.716356 -4.28301e-18
Li 0.408248 1.48944 -4.75398e-18
3
 Atoms. Timestep: 800
Li 0.142486 0.116443 -7.6762e-18
Li 2.63346 0.130616 -7.75477e-18
Li 1.4001 2.27752 -2.00514e-18
3
 Atoms. Timestep: 820
Li 0.888436 0.768769 -6.2434e-18
Li 3.57913 0.83362 -6.28127e-18
Li 2.28959 3.10065 2.30408e-18
3
 Atoms. Timestep: 840
Li 1.03041 0.906393 -7.53286e-19
Li 3.84557 0.964161 -7.84013e-19
Li 2.48773 3.34442 5.22101e-18
3
 Atoms. Timestep: 860
Li 0.496513 0.450337 5.22421e-18
Li 3.23376 0.456703 5.20297e-18
Li 1.87064 2.82013 4.72695e-18
3
 Atoms. Timestep: 880
Li -0.375023 -0.307961 7.78154e-18
Li 2.15453 -0.356457 7.77747e-18
Li 0.848032 1.88206 1.117e-18
3
 Atoms. Timestep: 900
Li -1.08085 -0.915531 5.41453e-18
Li 1.37061 -0.962549 5.33636e-18
Li 0.104485 1.21083 -3.4845e-18
3
 Atoms. Timestep: 920
Li -1.19731 -0.997215 -1.88478e-19
Li 1.43037 -0.981082 -4.35311e-19
Li 0.130601 1.28523 -6.26725e-18
3
 Atoms. Timestep: 940
Li -0.568489 -0.447415 -5.58306e-18
Li 2.23118 -0.379776 -5.8484e-18
Li 0.889747 1.98145 -5.07896e-18
3
 Atoms. Timestep: 960
Li 0.4299 0.394647 -7.30714e-18
Li 3.21345 0.461468 -7.41987e-18
Li 1.87924 2.80495 -5.67371e-19
3
 Atoms. Timestep: 980
Li 1.14066 0.975231 -4.24619e-18
Li 3.73587 0.988647 -4.15794e-18
Li 2.44968 3.21944 4.34678e-18
3
 Atoms. Timestep: 1000
Li 1.0513 0.88541 1.48362e-18
Li 3.49911 0.836418 1.71696e-18
Li 2.2328 3.0032 6.61919e-18
3
 Atoms. Timestep: 1020
Li 0.150596 0.137526 6.04667e-18
Li 2.71208 0.0904311 6.36455e-18
Li 1.3907 2.3619 4.82713e-18
3
 Atoms. Timestep: 1040
Li -0.913241 -0.740948 6.62439e-18
Li 1.84181 -0.735059 6.83767e-18
Li 0.469507 1.65598 -1.14384e-19
3
 Atoms. Timestep: 1060
Li -1.38567 -1.13711 2.86824e-18
Li 1.41316 -1.08188 2.8405e-18
Li 0.0615897 1.29417 -4.99136e-18
3
 Atoms. Timestep: 1080
Li -0.95105 -0.787423 -2.76118e-18
Li 1.70322 -0.725957 -2.99121e-18
Li 0.429242 1.51049 -6.60768e-18
3
 Atoms. Timestep: 1100
Li 0.0765713 0.0626143 -6.55937e-18
Li 2.55448 0.0722899 -6.82285e-18
Li 1.32383 2.20301 -3.93207e-18
3
 Atoms. Timestep: 1120
Li 0.95222 0.811414 -6.13577e-18
Li 3.47058 0.759078 -6.26401e-18
Li 2.16605 2.9905 1.4859e-18
3
 Atoms. Timestep: 1140
Li 1.11822 0.973395 -1.86014e-18
Li 3.82022 0.915594 -1.69677e-18
Li 2.41914 3.32081 6.18224e-18
3
 Atoms. Timestep: 1160
Li 0.531131 0.483842 3.57682e-18
Li 3.31844 0.468429 3.9619e-18
Li 1.9114 2.90999 6.8791e-18
3
 Atoms. Timestep: 1180
Li -0.406421 -0.323709 6.65607e-18
Li 2.28429 -0.285463 7.01534e-18
Li 0.972023 2.01448 3.06857e-18
3
 Atoms. Timestep: 1200
Li -1.09529 -0.926955 5.38813e-18
Li 1.41939 -0.871147 5.52069e-18
Li 0.210412 1.24924 -2.81952e-18
3
 Atoms. Timestep: 1220
Li -1.14134 -0.96179 7.38157e-19
Li 1.35978 -0.958394 7.02466e-19
Li 0.112315 1.19934 -7.28398e-18
3
 Atoms. Timestep: 1240
Li -0.525666 -0.416264 -4.20485e-18
Li 2.13776 -0.474755 -4.34733e-18
Li 0.755588 1.88934 -7.36606e-18
3
 Atoms. Timestep: 1260
Li 0.403841 0.381447 -6.34284e-18
Li 3.17449 0.310234 -6.51703e-18
Li 1.72758 2.78651 -2.68248e-18
3
 Atoms. Timestep: 1280
Li 1.06003 0.922254 -4.32623e-18
Li 3.76981 0.891845 -4.40972e-18
Li 2.38847 3.27815 3.75127e-18
3
 Atoms. Timestep: 1300
Li 1.00376 0.847978 4.87024e-19
Li 3.54662 0.881287 5.57845e-19
Li 2.30379 3.05566 7.77022e-18
3
 Atoms. Timestep: 1320
Li 0.225645 0.184611 4.8732e-18
Li 2.71495 0.23828 4.99415e-18
Li 1.5166 2.33898 6.94134e-18
3
 Atoms. Timestep: 1340
Li -0.784909 -0.643473 6.00628e-18
Li 1.85254 -0.642473 6.05537e-18
Li 0.534774 1.63837 1.71058e-18
3
 Atoms. Timestep: 1360
Li -1.31319 -1.06755 3.22529e-18
Li 1.45324 -1.12429 3.1707e-18
Li 0.0211951 1.32794 -4.67533e-18
3
 Atoms. Timestep: 1380
Li -0.9873 -0.796778 -1.64512e-18
Li 1.74475 -0.868331 -1.78547e-18
Li 0.317061 1.572 -7.99881e-18
3
 Atoms. Timestep: 1400
Li -0.0289435 -0.014371 -5.4048e-18
Li 2.53872 -0.0449052 -5.56166e-18
Li 1.22851 2.21439 -6.09419e-18
3
 Atoms. Timestep: 1420
Li 0.887151 0.740761 -5.62004e-18
Li 3.36027 0.77806 -5.70749e-18
Li 2.15578 2.88548 -1.74638e-19
3
 Atoms. Timestep: 1440
Li 1.12388 0.957414 -2.26758e-18
Li 3.72717 1.0119 -2.32149e-18
Li 2.47238 3.21166 6.16598e-18
3
 Atoms. Timestep: 1460
Li 0.580642 0.524364 2.48761e-18
Li 3.34594 0.536895 2.40874e-18
Li 1.97397 2.91881 8.69366e-18
3
 Atoms. Timestep: 1480
Li -0.348307 -0.254614 5.59085e-18
Li 2.41992 -0.294948 5.52733e-18
Li 1.00099 2.14284 5.55229e-18
3
 Atoms. Timestep: 1500
Li -1.05409 -0.870084 5.02926e-18
Li 1.55338 -0.93185 5.01827e-18
Li 0.196458 1.38914 -1.2241e-18
3
 Atoms. Timestep: 1520
Li -1.11532 -0.94522 1.27512e-18
Li 1.34685 -0.970361 1.26626e-18
Li 0.0942412 1.19053 -7.32353e-18
3
 Atoms. Timestep: 1540
Li -0.554787 -0.465912 -3.05253e-18
Li 1.9974 -0.424665 -3.11328e-18
Li 0.757054 1.7471 -9.05327e-18
3
 Atoms. Timestep: 1560
Li 0.304081 0.283223 -5.26329e-18
Li 3.04839 0.347216 -5.29599e-18
Li 1.73148 2.66042 -5.1002e-18
3
 Atoms. Timestep: 1580
Li 0.951759 0.840653 -4.01487e-18
Li 3.75371 0.873649 -3.99296e-18
Li 2.38109 3.26675 2.16562e-18
3
 Atoms. Timestep: 1600
Li 0.972263 0.845198 -1.43246e-19
Li 3.63988 0.82225 -8.76827e-20
Li 2.28608 3.15466 8.00485e-18
3
 Atoms. Timestep: 1620
Li 0.326749 0.277708 3.75027e-18
Li 2.80464 0.221532 3.8305e-18
Li 1.51709 2.42408 8.67938e-18
3
 Atoms. Timestep: 1640
Li -0.636608 -0.537556 5.04166e-18
Li 1.85986 -0.558642 5.16942e-18
Li 0.593458 1.6295 3.86166e-18
3
 Atoms. Timestep: 1660
Li -1.27357 -1.05448 3.02378e-18
Li 1.42173 -1.01167 3.13558e-18
Li 0.111208 1.28506 -3.48411e-18
3
 Atoms. Timestep: 1680
Li -1.09455 -0.889471 -9.49367e-19
Li 1.7153 -0.818385 -9.02273e-19
Li 0.371937 1.54568 -8.58905e-18
3
 Atoms. Timestep: 1700
Li -0.199776 -0.141761 -4.29122e-18
Li 2.52716 -0.0972405 -4.31412e-18
Li 1.20223 2.21799 -8.07475e-18
3
 Atoms. Timestep: 1720
Li 0.809382 0.689338 -4.81006e-18
Li 3.33647 0.671379 -4.87559e-18
Li 2.05736 2.8748 -2.2915e-18
3
 Atoms. Timestep: 1740
Li 1.20555 1.01717 -2.26135e-18
Li 3.66789 0.961659 -2.29469e-18
Li 2.38862 3.15036 5.11084e-18
3
 Atoms. Timestep: 1760
Li 0.697389 0.605326 1.52487e-18
Li 3.32806 0.581832 1.66247e-18
Li 1.99226 2.89179 9.49736e-18
3
 Atoms. Timestep: 1780
Li -0.304897 -0.225315 4.21325e-18
Li 2.48081 -0.192443 4.47045e-18
Li 1.11627 2.19637 7.78651e-18
3
 Atoms. Timestep: 1800
Li -1.108 -0.907115 4.12934e-18
Li 1.65442 -0.842963 4.33589e-18
Li 0.328688 1.48867 9.93232e-19
3
 Atoms. Timestep: 1820
Li -1.18948 -0.995165 1.34827e-18
Li 1.3968 -0.952093 1.38875e-18
Li 0.141041 1.24127 -6.46133e-18
3
 Atoms. Timestep: 1840
Li -0.542836 -0.459302 -2.20613e-18
Li 1.92205 -0.480387 -2.30374e-18
Li 0.671567 1.67054 -9.91588e-18
3
 Atoms. Timestep: 1860
Li 0.349088 0.309469 -4.07399e-18
Li 2.92479 0.250913 -4.29472e-18
Li 1.58644 2.54172 -7.27751e-18
3
 Atoms. Timestep: 1880
Li 0.950512 0.834785 -3.18869e-18
Li 3.69363 0.796996 -3.43336e-18
Li 2.28935 3.22009 4.30065e-21
3
 Atoms. Timestep: 1900
Li 0.916647 0.804754 -2.20536e-19
Li 3.68614 0.817751 -3.27512e-19
Li 2.31244 3.21394 7.26156e-18
3
 Atoms. Timestep: 1920
Li 0.277206 0.245426 2.87468e-18
Li 2.90884 0.298221 2.9664e-18
Li 1.63846 2.52823 9.76294e-18
3
 Atoms. Timestep: 1940
Li -0.575511 -0.489702 4.03508e-18
Li 1.91143 -0.450881 4.21542e-18
Li 0.70145 1.66013 5.9969e-18
3
 Atoms. Timestep: 1960
Li -1.13809 -0.950903 2.51537e-18
Li 1.40688 -0.97641 2.64362e-18
Li 0.112448 1.24908 -1.5918e-18
3
 Atoms. Timestep: 1980
Li -1.02185 -0.829466 -5.88209e-19
Li 1.68424 -0.895701 -6.10764e-19
Li 0.274147 1.51561 -8.21223e-18
3
 Atoms. Timestep: 2000
Li -0.255535 -0.178274 -3.25723e-18
Li 2.50758 -0.231809 -3.44659e-18
Li 1.0799 2.22225 -9.47847e-18
3
 Atoms. Timestep: 2020
Li 0.668127 0.582306 -3.77189e-18
Li 3.32719 0.581802 -4.0183e-18
Li 1.99722 2.8936 -4.54444e-18
3
 Atoms. Timestep: 2040
Li 1.12383 0.944183 -1.81843e-18
Li 3.63118 0.993904 -1.97339e-18
Li 2.42033 3.1179 3.36631e-18
3
 Atoms. Timestep: 2060
Li 0.764464 0.646191 1.22329e-18
Li 3.28965 0.681281 1.15567e-18
Li 2.05719 2.83047 9.33999e-18
3
 Atoms. Timestep: 2080
Li -0.165727 -0.112475 3.32151e-18
Li 2.51746 -0.138203 3.28988e-18
Li 1.15351 2.2091 9.53557e-18
3
 Atoms. Timestep: 2100
Li -1.00666 -0.808619 3.19672e-18
Li 1.75768 -0.875145 3.22576e-18
Li 0.318038 1.58605 3.56533e-18
3
 Atoms. Timestep: 2120
Li -1.19296 -0.97866 9.78988e-19
Li 1.49032 -1.03545 1.04973e-18
Li 0.0997349 1.34926 -4.71544e-18
3
 Atoms. Timestep: 2140
Li -0.62077 -0.522397 -1.82957e-18
Li 1.90289 -0.523214 -1.786e-18
Li 0.640512 1.66831 -9.93918e-18
3
 Atoms. Timestep: 2160
Li 0.281444 0.232575 -3.28479e-18
Li 2.78158 0.283538 -3.27732e-18
Li 1.57564 2.39892 -8.94616e-18
3
 Atoms. Timestep: 2180
Li 0.914422 0.789717 -2.47145e-18
Li 3.57227 0.827334 -2.41611e-18
Li 2.27583 3.09052 -2.4148e-18
3
 Atoms. Timestep: 2200
Li 0.918999 0.813577 -3.39104e-20
Li 3.69285 0.800231 4.6417e-20
Li 2.29427 3.21496 5.63938e-18
3
 Atoms. Timestep: 2220
Li 0.316389 0.301269 2.40899e-18
Li 3.03709 0.246945 2.46628e-18
Li 1.62966 2.65756 9.98078e-18
3
 Atoms. Timestep: 2240
Li -0.506735 -0.417163 3.23247e-18
Li 2.04324 -0.468317 3.25619e-18
Li 0.723977 1.79333 7.81089e-18
3
 Atoms. Timestep: 2260
Li -1.06287 -0.902319 1.867e-18
Li 1.40985 -0.898678 1.88062e-18
Li 0.176669 1.24296 6.37572e-19
3
 Atoms. Timestep: 2280
Li -1.02076 -0.851663 -6.95953e-19
Li 1.59339 -0.797759 -6.8035e-19
Li 0.33301 1.41378 -6.98358e-18
3
 Atoms. Timestep: 2300
Li -0.350646 -0.264247 -2.74935e-18
Li 2.42016 -0.213897 -2.69031e-18
Li 1.0784 2.13499 -1.01422e-17
3
 Atoms. Timestep: 2320
Li 0.540953 0.491639 -2.98866e-18
Li 3.30562 0.497764 -2.89998e-18
Li 1.92865 2.88488 -6.68687e-18
3
 Atoms. Timestep: 2340
Li 1.06759 0.918371 -1.26905e-18
Li 3.66745 0.876304 -1.20518e-18
Li 2.33113 3.16917 1.12375e-18
3
 Atoms. Timestep: 2360
Li 0.843247 0.710123 1.21801e-18
Li 3.30495 0.66278 1.24623e-18
Li 2.03306 2.84408 8.24804e-18
3
 Atoms. Timestep: 2380
Li -0.043552 -0.0316716 2.67271e-18
Li 2.51253 -0.0254597 2.74506e-18
Li 1.2397 2.18726 1.02961e-17
3
 Atoms. Timestep: 2400
Li -0.961841 -0.786119 2.24365e-18
Li 1.77814 -0.729307 2.32485e-18
Li 0.457165 1.59023 5.84123e-18
3
 Atoms. Timestep: 2420
Li -1.25693 -1.02743 3.36021e-19
Li 1.53475 -0.966531 3.59316e-19
Li 0.191589 1.39014 -2.3804e-18
3
 Atoms. Timestep: 2440
Li -0.730668 -0.595847 -1.78146e-18
Li 1.93105 -0.578308 -1.82321e-18
Li 0.615506 1.70677 -9.02123e-18
3
 Atoms. Timestep: 2460
Li 0.242751 0.207196 -2.66775e-18
Li 2.72798 0.168142 -2.7447e-18
Li 1.45178 2.35726 -9.84443e-18
3
 Atoms. Timestep: 2480
Li 0.953569 0.808494 -1.60799e-18
Li 3.45826 0.762201 -1.75308e-18
Li 2.16598 2.98097 -4.53039e-18
3
 Atoms. Timestep: 2500
Li 0.947636 0.821735 5.99742e-19
Li 3.63378 0.822919 4.25731e-19
Li 2.29166 3.15622 3.58122e-18
3
 Atoms. Timestep: 2520
Li 0.29936 0.284496 2.40194e-18
Li 3.08775 0.333826 2.30682e-18
Li 1.73602 2.7056 9.32712e-18
3
 Atoms. Timestep: 2540
Li -0.544755 -0.437223 2.62325e-18
Li 2.16559 -0.378153 2.65135e-18
Li 0.86132 1.91031 8.96367e-18
3
 Atoms. Timestep: 2560
Li -1.0441 -0.877087 1.1119e-18
Li 1.4888 -0.859154 1.21338e-18
Li 0.237826 1.3123 2.79656e-18
3
 Atoms. Timestep: 2580
Li -0.930305 -0.782858 -1.13084e-18
Li 1.55242 -0.823314 -1.03329e-18
Li 0.276204 1.36436 -5.14195e-18
3
 Atoms. Timestep: 2600
Li -0.307246 -0.238832 -2.52187e-18
Li 2.32282 -0.289921 -2.53249e-18
Li 0.96381 2.04335 -9.84336e-18
3
 Atoms. Timestep: 2620
Li 0.475518 0.434188 -2.18261e-18
Li 3.23643 0.419647 -2.33724e-18
Li 1.84353 2.83499 -8.18641e-18
3
 Atoms. Timestep: 2640
Li 0.936479 0.815947 -4.04931e-19
Li 3.66997 0.849255 -6.08994e-19
Li 2.332 3.19085 -1.19582e-18
3
 Atoms. Timestep: 2660
Li 0.771894 0.657098 1.62788e-18
Li 3.35034 0.709656 1.5024e-18
Li 2.10641 2.89022 6.55512e-18
3
 Atoms. Timestep: 2680
Li 0.0523991 0.0426019 2.52146e-18
Li 2.53935 0.0571476 2.4921e-18
Li 1.30827 2.19187 1.01752e-17
3
 Atoms. Timestep: 2700
Li -0.788883 -0.648931 1.58662e-18
Li 1.80312 -0.692199 1.63168e-18
Li 0.469605 1.59349 7.50947e-18
3
 Atoms. Timestep: 2720
Li -1.16035 -0.944464 -4.73559e-19
Li 1.5698 -1.00519 -3.51377e-19
Li 0.152241 1.42372 9.23916e-20
3
 Atoms. Timestep: 2740
Li -0.78382 -0.629721 -2.22192e-18
Li 1.95466 -0.660088 -2.09752e-18
Li 0.559287 1.75003 -7.34136e-18
3
 Atoms. Timestep: 2760
Li 0.0933707 0.0893093 -2.49409e-18
Li 2.70325 0.112271 -2.4534e-18
Li 1.41831 2.35582 -9.96081e-18
3
 Atoms. Timestep: 2780
Li 0.865387 0.725531 -1.06856e-18
Li 3.36173 0.775503 -1.0991e-18
Li 2.15684 2.88702 -6.21781e-18
3
 Atoms. Timestep: 2800
Li 0.985602 0.840857 1.14215e-18
Li 3.55373 0.852783 1.14053e-18
Li 2.27996 3.06185 1.31109e-18
3
 Atoms. Timestep: 2820
Li 0.404822 0.3742 2.60491e-18
Li 3.11613 0.331276 2.64682e-18
Li 1.72326 2.72064 7.91372e-18
3
 Atoms. Timestep: 2840
Li -0.454535 -0.345937 2.33622e-18
Li 2.29045 -0.409504 2.40826e-18
Li 0.862872 2.03321 9.33313e-18
3
 Atoms. Timestep: 2860
Li -1.02268 -0.84379 5.19298e-19
Li 1.6118 -0.878904 5.95679e-19
Li 0.264122 1.44283 4.65919e-18
3
 Atoms. Timestep: 2880
Li -0.953853 -0.808169 -1.65747e-18
Li 1.54863 -0.785362 -1.61047e-18
Li 0.317121 1.36317 -3.00002e-18
3
 Atoms. Timestep: 2900
Li -0.342189 -0.287796 -2.70922e-18
Li 2.1984 -0.238169 -2.69217e-18
Li 0.971112 1.91222 -8.75032e-18
3
 Atoms. Timestep: 2920
Li 0.426594 0.385056 -1.90582e-18
Li 3.12164 0.402238 -1.85571e-18
Li 1.78911 2.71743 -8.97674e-18
3
 Atoms. Timestep: 2940
Li 0.893989 0.792657 1.70256e-19
Li 3.65544 0.760802 2.39852e-19
Li 2.24726 3.18295 -3.40711e-18
3
 Atoms. Timestep: 2960
Li 0.766791 0.674588 2.13081e-18
Li 3.43596 0.618429 2.17133e-18
Li 2.0528 2.98667 4.35616e-18
3
 Atoms. Timestep: 2980
Li 0.111431 0.0977253 2.66018e-18
Li 2.62568 0.0654117 2.66156e-18
Li 1.34049 2.27836 9.27074e-18
3
 Atoms. Timestep: 3000
Li -0.694597 -0.588999 1.29865e-18
Li 1.81062 -0.563597 1.29869e-18
Li 0.579811 1.58388 8.35293e-18
3
 Atoms. Timestep: 3020
Li -1.12358 -0.931657 -1.04739e-18
Li 1.53918 -0.878 -1.08876e-18
Li 0.254089 1.37487 2.29745e-18
3
 Atoms. Timestep: 3040
Li -0.840844 -0.675817 -2.72211e-18
Li 1.93186 -0.644157 -2.80659e-18
Li 0.572921 1.72434 -5.15201e-18
3
 Atoms. Timestep: 3060
Li -0.0142654 0.0186637 -2.60587e-18
Li 2.70188 0.00324566 -2.67704e-18
Li 1.33063 2.36949 -9.19892e-18
3
 Atoms. Timestep: 3080
Li 0.801756 0.68759 -7.55454e-19
Li 3.34982 0.638994 -7.79518e-19
Li 2.03394 2.894 -7.25435e-18
3
 Atoms. Timestep: 3100
Li 1.0202 0.859372 1.69756e-18
Li 3.49598 0.829652 1.67657e-18
Li 2.23246 3.00682 -7.48482e-19
3
 Atoms. Timestep: 3120
Li 0.469273 0.406991 3.10546e-18
Li 3.08038 0.433189 3.06643e-18
Li 1.7974 2.67273 6.0948e-18
3
 Atoms. Timestep: 3140
Li -0.427637 -0.332193 2.46092e-18
Li 2.33227 -0.273597 2.41507e-18
Li 1.00282 2.05968 8.95873e-18
3
 Atoms. Timestep: 3160
Li -1.04674 -0.852916 2.04228e-19
Li 1.7091 -0.809224 1.57755e-19
Li 0.368819 1.53245 5.98162e-18
3
 Atoms. Timestep: 3180
Li -0.985444 -0.816637 -2.18084e-18
Li 1.6175 -0.822466 -2.21318e-18
Li 0.31097 1.43502 -8.66545e-19
3
 Atoms. Timestep: 3200
Li -0.326307 -0.27443 -3.12454e-18
Li 2.14757 -0.32092 -3.12923e-18
Li 0.870548 1.86724 -7.11179e-18
3
 Atoms. Timestep: 3220
Li 0.439176 0.379076 -1.89586e-18
Li 2.9941 0.34919 -1.92756e-18
Li 1.69096 2.5966 -8.86254e-18
3
 Atoms. Timestep: 3240
Li 0.848761 0.741705 6.83811e-19
Li 3.56977 0.761959 6.00279e-19
Li 2.22689 3.10507 -4.99425e-18
3
 Atoms. Timestep: 3260
Li 0.68743 0.610132 2.82333e-18
Li 3.45763 0.6646 2.74592e-18
Li 2.11962 3.01266 2.0788e-18
3
 Atoms. Timestep: 3280
Li 0.0723935 0.0783677 3.10455e-18
Li 2.72871 0.12355 3.08363e-18
Li 1.4395 2.37715 7.75782e-18
3
 Atoms. Timestep: 3300
Li -0.614714 -0.516751 1.31689e-18
Li 1.88812 -0.521703 1.34182e-18
Li 0.632275 1.64685 8.42978e-18
3
 Atoms. Timestep: 3320
Li -0.982156 -0.822209 -1.48661e-18
Li 1.53535 -0.869113 -1.41301e-18
Li 0.23595 1.35736 3.89065e-18
3
 Atoms. Timestep: 3340
Li -0.786543 -0.639713 -3.43828e-18
Li 1.8847 -0.676649 -3.30418e-18
Li 0.517153 1.67969 -2.96154e-18
3
 Atoms. Timestep: 3360
Li -0.102968 -0.0557332 -3.14555e-18
Li 2.6557 -0.0502356 -3.02926e-18
Li 1.28122 2.34182 -7.82193e-18
3
 Atoms. Timestep: 3380
Li 0.637798 0.558316 -7.91144e-19
Li 3.32811 0.601661 -7.6463e-19
Li 2.02056 2.8926 -7.55511e-18
3
 Atoms. Timestep: 3400
Li 0.939021 0.79492 2.09288e-18
Li 3.48004 0.836857 2.04445e-18
Li 2.24587 2.99342 -2.42668e-18
3
 Atoms. Timestep: 3420
Li 0.559901 0.475367 3.6505e-18
Li 3.06613 0.468307 3.60121e-18
Li 1.8069 2.64172 4.10668e-18
3
 Atoms. Timestep: 3440
Li -0.266122 -0.202417 2.80836e-18
Li 2.36569 -0.252298 2.79998e-18
Li 1.00655 2.07628 7.91824e-18
3
 Atoms. Timestep: 3460
Li -0.950511 -0.768073 8.92684e-20
Li 1.78658 -0.816188 1.52303e-19
Li 0.376302 1.6075 6.59298e-18
3
 Atoms. Timestep: 3480
Li -1.0206 -0.835792 -2.69416e-18
Li 1.68463 -0.844518 -2.58415e-18
Li 0.324391 1.51453 9.83728e-19
3
 Atoms. Timestep: 3500
Li -0.438643 -0.365288 -3.7114e-18
Li 2.13248 -0.328835 -3.6219e-18
Li 0.87846 1.86514 -5.22445e-18
3
 Atoms. Timestep: 3520
Li 0.375446 0.314628 -2.26919e-18
Li 2.88061 0.354429 -2.23064e-18
Li 1.66256 2.48226 -8.06376e-18
3
 Atoms. Timestep: 3540
Li 0.861543 0.743109 7.5366e-19
Li 3.46837 0.735501 7.85211e-19
Li 2.15852 2.99763 -5.88918e-18
3
 Atoms. Timestep: 3560
Li 0.739102 0.65837 3.33948e-18
Li 3.46232 0.608058 3.348e-18
Li 2.05729 3.01593 -2.05206e-20
3
 Atoms. Timestep: 3580
Li 0.119995 0.133913 3.74265e-18
Li 2.83659 0.0808059 3.71339e-18
Li 1.43233 2.48953 5.81059e-18
3
 Atoms. Timestep: 3600
Li -0.589357 -0.485458 1.68389e-18
Li 2.00452 -0.499262 1.64267e-18
Li 0.695505 1.76612 7.82703e-18
3
 Atoms. Timestep: 3620
Li -0.955741 -0.810588 -1.53858e-18
Li 1.54611 -0.774531 -1.56414e-18
Li 0.326209 1.35871 4.85755e-18
3
 Atoms. Timestep: 3640
Li -0.774547 -0.646231 -3.85433e-18
Li 1.80633 -0.606168 -3.9157e-18
Li 0.55046 1.58781 -9.7372e-19
3
 Atoms. Timestep: 3660
Li -0.136411 -0.0857725 -3.67635e-18
Li 2.5785 -0.0863441 -3.77011e-18
Li 1.2206 2.26343 -6.02214e-18
3
 Atoms. Timestep: 3680
Li 0.573229 0.51957 -1.08916e-18
Li 3.31042 0.477901 -1.15741e-18
Li 1.90594 2.88894 -7.11159e-18
3
 Atoms. Timestep: 3700
Li 0.89294 0.774167 2.21692e-18
Li 3.51639 0.72453 2.20333e-18
Li 2.16188 3.04741 -3.56724e-18
3
 Atoms. Timestep: 3720
Li 0.587738 0.496032 4.11195e-18
Li 3.08837 0.48331 4.13032e-18
Li 1.82709 2.66535 2.21141e-18
3
 Atoms. Timestep: 3740
Li -0.184954 -0.154327 3.34422e-18
Li 2.35945 -0.117274 3.36917e-18
Li 1.1192 2.05148 6.45305e-18
3
 Atoms. Timestep: 3760
Li -0.895714 -0.734133 3.59372e-19
Li 1.79876 -0.688222 3.48837e-19
Li 0.491069 1.59899 6.54374e-18
3
 Atoms. Timestep: 3780
Li -1.03461 -0.839528 -2.86537e-18
Li 1.72377 -0.825716 -2.93258e-18
Li 0.356406 1.5477 2.42203e-18
3
 Atoms. Timestep: 3800
Li -0.502941 -0.399015 -4.20611e-18
Li 2.16505 -0.428057 -4.29163e-18
Li 0.805937 1.9101 -3.24282e-18
3
 Atoms. Timestep: 3820
Li 0.328358 0.283308 -2.78454e-18
Li 2.8456 0.237971 -2.83614e-18
Li 1.54789 2.46396 -6.76095e-18
3
 Atoms. Timestep: 3840
Li 0.859774 0.726142 5.52183e-19
Li 3.36546 0.714778 5.23319e-19
Li 2.10294 2.90006 -5.99517e-18
3
 Atoms. Timestep: 3860
Li 0.742464 0.642612 3.65044e-18
Li 3.39562 0.679989 3.63856e-18
Li 2.10147 2.94358 -1.56726e-18
3
 Atoms. Timestep: 3880
Li 0.111958 0.12441 4.38199e-18
Li 2.87287 0.17704 4.41407e-18
Li 1.53792 2.51575 3.76903e-18
3
 Atoms. Timestep: 3900
Li -0.59447 -0.474917 2.24452e-18
Li 2.11937 -0.449384 2.30282e-18
Li 0.784427 1.87337 6.60587e-18
3
 Atoms. Timestep: 3920
Li -0.923198 -0.768629 -1.36893e-18
Li 1.6359 -0.790583 -1.32723e-18
Li 0.337233 1.44536 5.14892e-18
3
 Atoms. Timestep: 3940
Li -0.70866 -0.596482 -4.17806e-18
Li 1.77627 -0.640312 -4.14399e-18
Li 0.495822 1.55633 5.15353e-19
3
 Atoms. Timestep: 3960
Li -0.127979 -0.0952991 -4.37109e-18
Li 2.47205 -0.108527 -4.30768e-18
Li 1.1606 2.16177 -4.22716e-18
3
 Atoms. Timestep: 3980
Li 0.487434 0.438387 -1.7211e-18
Li 3.22476 0.470591 -1.65966e-18
Li 1.88404 2.81425 -6.15522e-18
3
 Atoms. Timestep: 4000
Li 0.77089 0.677693 2.04657e-18
Li 3.51191 0.729399 2.0762e-18
Li 2.18624 3.05278 -4.06869e-18
