6
 Atoms. Timestep: 0
Li -1.743165 -2.544896 2.171081
Li -3.521515 -0.882985 0.321110
Li 1.705427 0.926773 -1.331622
Li 3.429175 2.627731 0.434007
Li -0.184575 2.586454 0.403209
Li 0.036548 2.623953 -2.940574
6
 Atoms. Timestep: 10
Li -1.750552 -2.576767 2.158690
Li -3.442914 -0.883687 0.370786
Li 1.689469 0.798358 -1.315753
Li 3.403830 2.497332 0.455686
Li -0.054582 2.540916 0.472692
Li -0.080532 2.624173 -2.959275
6
 Atoms. Timestep: 20
Li -1.684052 -2.578587 2.080705
Li -3.457505 -0.824899 0.416097
Li 1.724764 0.829382 -1.327890
Li 3.324358 2.615881 0.437845
Li 0.046607 2.640556 0.465322
Li 0.043411 2.512620 -3.010297
6
 Atoms. Timestep: 30
Li -1.771249 -2.531058 2.221533
Li -3.407574 -0.991327 0.482443
Li 1.724027 0.883065 -1.268299
Li 3.485601 2.621486 0.355682
Li -0.018665 2.576473 0.413251
Li 0.056804 2.644161 -3.015463
6
 Atoms. Timestep: 40
Li -1.677921 -2.563752 2.154110
Li -3.452112 -0.804247 0.520627
Li 1.655791 0.902122 -1.310496
Li 3.417568 2.619374 0.424475
Li 0.039472 2.617044 0.527479
Li -0.078415 2.452340 -2.942504
6
 Atoms. Timestep: 50
Li -1.632963 -2.521369 2.102070
Li -3.405248 -0.839146 0.345238
Li 1.732981 0.829341 -1.339153
Li 3.343419 2.562101 0.542150
Li 0.029934 2.579027 0.422689
Li 0.043763 2.567405 -3.010876
6
 Atoms. Timestep: 60
Li -1.627754 -2.614508 2.124199
Li -3.514581 -0.878341 0.477389
Li 1.677384 0.847345 -1.311108
Li 3.346619 2.528189 0.448016
Li 0.040888 2.548685 0.458881
Li 0.098504 2.574582 -2.936532
6
 Atoms. Timestep: 70
Li -1.766314 -2.501740 2.225120
Li -3.423656 -0.905882 0.384096
Li 1.695751 0.864131 -1.315737
Li 3.447757 2.525535 0.485222
Li 0.011446 2.516756 0.484748
Li 0.071749 2.589287 -3.147254
6
 Atoms. Timestep: 80
Li -1.737180 -2.664178 2.090560
Li -3.525893 -0.852155 0.426428
Li 1.746727 0.867832 -1.275432
Li 3.396486 2.548188 0.478690
Li -0.018481 2.676808 0.281746
Li 0.077151 2.510812 -2.988037
6
 Atoms. Timestep: 90
Li -1.719127 -2.580439 2.128549
Li -3.421887 -0.868676 0.333031
Li 1.597854 0.899303 -1.189867
Li 3.392688 2.558360 0.470046
Li -0.010863 2.512489 0.394293
Li -0.060418 2.580146 -3.003880
6
 Atoms. Timestep: 100
Li -1.706848 -2.553083 2.209473
Li -3.374469 -0.871238 0.432419
Li 1.670771 0.842345 -1.236228
Li 3.440412 2.564050 0.482779
Li 0.079881 2.553395 0.317100
Li 0.054663 2.467210 -3.083688
6
 Atoms. Timestep: 110
Li -1.775934 -2.572921 2.034490
Li -3.273299 -0.798696 0.401381
Li 1.766606 0.762481 -1.264099
Li 3.329760 2.516162 0.424182
Li -0.083991 2.429329 0.348636
Li 0.035172 2.523463 -2.979510
6
 Atoms. Timestep: 120
Li -1.743983 -2.486039 2.219718
Li -3.318689 -0.772340 0.513126
Li 1.748741 0.729662 -1.220500
Li 3.380476 2.616189 0.420120
Li 0.011055 2.561296 0.373486
Li 0.064608 2.525564 -2.869462
6
 Atoms. Timestep: 130
Li -1.653656 -2.629051 2.152334
Li -3.376384 -0.807694 0.521804
Li 1.704548 0.832025 -1.228059
Li 3.428022 2.435853 0.522368
Li 0.030152 2.552436 0.377963
Li 0.051279 2.600151 -2.980881
6
 Atoms. Timestep: 140
Li -1.727459 -2.522558 2.095506
Li -3.294548 -0.795165 0.446995
Li 1.605986 0.792975 -1.229923
Li 3.395764 2.459407 0.470971
Li 0.109832 2.550993 0.272569
Li 0.025615 2.554845 -2.846759
6
 Atoms. Timestep: 150
Li -1.788738 -2.544511 2.057475
Li -3.347202 -0.777688 0.459561
Li 1.712947 0.825157 -1.240711
Li 3.357459 2.480745 0.471222
Li -0.000746 2.529227 0.272579
Li 0.042336 2.577781 -2.844239
6
 Atoms. Timestep: 160
Li -1.726924 -2.552070 2.141031
Li -3.245029 -0.867049 0.464723
Li 1.685453 0.794546 -1.351574
Li 3.343235 2.437761 0.543110
Li -0.063578 2.544243 0.261070
Li 0.120064 2.595397 -2.955177
6
 Atoms. Timestep: 170
Li -1.670301 -2.615744 2.053234
Li -3.399491 -0.899015 0.366051
Li 1.749243 0.832001 -1.247602
Li 3.435095 2.496923 0.408059
Li 0.003759 2.559337 0.325548
Li 0.059091 2.544284 -2.858020
6
 Atoms. Timestep: 180
Li -1.716831 -2.559577 2.085770
Li -3.293615 -0.861280 0.501449
Li 1.775424 0.752139 -1.233843
Li 3.367515 2.360733 0.459156
Li 0.046265 2.407800 0.259489
Li 0.071561 2.530460 -2.864446
6
 Atoms. Timestep: 190
Li -1.800257 -2.459878 2.110706
Li -3.345357 -0.785001 0.411533
Li 1.631501 0.735342 -1.257175
Li 3.264201 2.315849 0.519772
Li 0.000584 2.479521 0.378145
Li 0.075325 2.512759 -2.838675
6
 Atoms. Timestep: 200
Li -1.643725 -2.446874 2.093977
Li -3.353139 -0.700586 0.375693
Li 1.651775 0.688270 -1.171440
Li 3.199131 2.384972 0.579386
Li 0.023055 2.510909 0.346562
Li 0.030456 2.507688 -2.908333
6
 Atoms. Timestep: 210
Li -1.748431 -2.533613 2.084749
Li -3.271116 -0.774488 0.349077
Li 1.677069 0.666596 -1.240823
Li 3.269991 2.424735 0.510447
Li -0.043659 2.450226 0.291562
Li 0.090420 2.559749 -2.792228
6
 Atoms. Timestep: 220
Li -1.667046 -2.534640 1.978308
Li -3.244912 -0.732514 0.487304
Li 1.601233 0.663399 -1.222522
Li 3.279214 2.319498 0.566234
Li 0.002847 2.486094 0.295165
Li 0.133726 2.407311 -2.769196
6
 Atoms. Timestep: 230
Li -1.749430 -2.480054 2.129037
Li -3.226355 -0.734507 0.462883
Li 1.710234 0.689807 -1.249902
Li 3.272856 2.366283 0.522576
Li -0.073441 2.478450 0.256848
Li 0.142393 2.460043 -2.761566
6
 Atoms. Timestep: 240
Li -1.762190 -2.462810 2.029987
Li -3.205806 -0.634076 0.428551
Li 1.762467 0.775114 -1.179202
Li 3.291998 2.341804 0.616423
Li 0.016257 2.375169 0.284462
Li 0.084908 2.514665 -2.853255
6
 Atoms. Timestep: 250
Li -1.752568 -2.486143 1.991565
Li -3.184205 -0.697168 0.491420
Li 1.728409 0.617205 -1.188489
Li 3.220635 2.274512 0.697312
Li -0.050496 2.499550 0.234933
Li 0.117676 2.466109 -2.777528
6
 Atoms. Timestep: 260
Li -1.766787 -2.496468 2.013683
Li -3.144477 -0.729531 0.405351
Li 1.643494 0.661606 -1.268398
Li 3.137162 2.337271 0.653686
Li -0.040869 2.364929 0.220293
Li 0.097351 2.435953 -2.720161
6
 Atoms. Timestep: 270
Li -1.770964 -2.466106 1.954637
Li -3.168427 -0.728848 0.455674
Li 1.557741 0.701451 -1.109880
Li 3.125628 2.257126 0.562736
Li -0.042972 2.497861 0.121199
Li 0.240866 2.432024 -2.668470
6
 Atoms. Timestep: 280
Li -1.770537 -2.422031 1.991522
Li -3.242231 -0.642184 0.457217
Li 1.601158 0.684070 -1.157714
Li 3.166192 2.228391 0.599236
Li -0.042281 2.375211 0.145545
Li 0.107151 2.404458 -2.663670
6
 Atoms. Timestep: 290
Li -1.674739 -2.567140 1.881034
Li -3.165954 -0.650515 0.484169
Li 1.633444 0.632168 -1.192499
Li 3.146725 2.148112 0.672673
Li -0.036397 2.475205 0.330668
Li 0.209170 2.460271 -2.735879
6
 Atoms. Timestep: 300
Li -1.710589 -2.426292 1.872821
Li -3.099117 -0.674851 0.497120
Li 1.561347 0.646982 -1.205498
Li 3.102219 2.231127 0.692091
Li -0.165703 2.429617 0.290805
Li 0.147886 2.419939 -2.690844
6
 Atoms. Timestep: 310
Li -1.751638 -2.328882 2.003257
Li -3.052800 -0.669112 0.471607
Li 1.576246 0.594423 -1.214041
Li 3.167060 2.174879 0.624506
Li -0.055314 2.358612 0.163189
Li 0.269948 2.513167 -2.605457
6
 Atoms. Timestep: 320
Li -1.779821 -2.352446 1.862543
Li -3.089628 -0.551949 0.510778
Li 1.625840 0.648657 -1.216731
Li 3.087090 2.138559 0.785131
Li -0.075197 2.400118 0.267783
Li 0.234181 2.348627 -2.618710
6
 Atoms. Timestep: 330
Li -1.777090 -2.461610 1.942487
Li -3.066981 -0.619945 0.427725
Li 1.580024 0.684138 -1.228136
Li 3.052892 2.130266 0.664748
Li -0.096704 2.279516 0.127113
Li 0.342783 2.532228 -2.622959
6
 Atoms. Timestep: 340
Li -1.884012 -2.453165 1.912005
Li -3.130449 -0.541087 0.428697
Li 1.626895 0.628246 -1.141102
Li 3.032822 2.150530 0.707346
Li -0.086769 2.333584 0.161484
Li 0.322717 2.325049 -2.546433
6
 Atoms. Timestep: 350
Li -1.749800 -2.440237 1.858057
Li -3.010132 -0.594140 0.492222
Li 1.523986 0.547126 -1.086782
Li 2.942994 2.049138 0.643413
Li -0.141186 2.357534 0.121307
Li 0.341475 2.316953 -2.515372
6
 Atoms. Timestep: 360
Li -1.809834 -2.413831 1.903289
Li -2.945740 -0.562785 0.508986
Li 1.552340 0.553271 -1.164716
Li 3.035665 2.070191 0.716769
Li -0.065834 2.232151 0.105746
Li 0.299566 2.306172 -2.578256
6
 Atoms. Timestep: 370
Li -1.858424 -2.362527 1.831627
Li -2.973504 -0.570060 0.412999
Li 1.575103 0.619552 -1.113536
Li 2.951501 2.015700 0.772635
Li -0.098379 2.327904 0.025398
Li 0.350640 2.322660 -2.448938
6
 Atoms. Timestep: 380
Li -1.713970 -2.356814 1.862980
Li -3.011110 -0.469713 0.492360
Li 1.584480 0.499426 -1.111021
Li 2.931284 1.901163 0.752343
Li -0.026860 2.264892 0.037211
Li 0.296311 2.437616 -2.481034
6
 Atoms. Timestep: 390
Li -1.769778 -2.259953 1.746027
Li -3.015386 -0.500421 0.537612
Li 1.544317 0.509701 -1.161627
Li 2.837150 1.973788 0.804505
Li -0.035666 2.222866 0.020901
Li 0.393685 2.300930 -2.456773
6
 Atoms. Timestep: 400
Li -1.734268 -2.429958 1.766246
Li -2.936039 -0.556372 0.521660
Li 1.454835 0.493466 -0.971065
Li 2.860176 1.936422 0.793806
Li -0.084539 2.246484 0.003582
Li 0.326965 2.363275 -2.419767
6
 Atoms. Timestep: 410
Li -1.770927 -2.298572 1.843983
Li -2.880365 -0.568296 0.466514
Li 1.497101 0.589669 -1.082544
Li 2.818383 2.056482 0.773167
Li -0.092067 2.170537 -0.090250
Li 0.343506 2.298360 -2.372303
6
 Atoms. Timestep: 420
Li -1.775916 -2.348167 1.813993
Li -2.893898 -0.589834 0.553203
Li 1.494950 0.474305 -1.014381
Li 2.826411 1.965447 0.836990
Li -0.140893 2.255066 -0.049126
Li 0.405966 2.348541 -2.340534
6
 Atoms. Timestep: 430
Li -1.777567 -2.365584 1.746696
Li -2.836132 -0.423579 0.495672
Li 1.540328 0.476708 -1.080972
Li 2.787908 1.818271 0.892585
Li -0.122467 2.213076 -0.107764
Li 0.528319 2.431081 -2.307944
6
 Atoms. Timestep: 440
Li -1.804729 -2.335266 1.762156
Li -2.802443 -0.497975 0.473794
Li 1.577536 0.413700 -1.063991
Li 2.721187 1.816176 0.823289
Li -0.095694 2.237165 -0.056438
Li 0.407776 2.278017 -2.290659
6
 Atoms. Timestep: 450
Li -1.842529 -2.300843 1.681973
Li -2.841030 -0.490189 0.486688
Li 1.406708 0.511864 -0.984128
Li 2.821539 1.739814 0.924078
Li -0.079508 2.174486 -0.129222
Li 0.483415 2.226822 -2.188728
6
 Atoms. Timestep: 460
Li -1.776884 -2.323205 1.777611
Li -2.800792 -0.494242 0.464052
Li 1.467610 0.512522 -1.006175
Li 2.779958 1.805512 0.993069
Li -0.188364 2.084484 -0.130721
Li 0.427387 2.289750 -2.161976
6
 Atoms. Timestep: 470
Li -1.760542 -2.271895 1.635268
Li -2.715557 -0.439739 0.497571
Li 1.469183 0.377254 -1.053786
Li 2.690368 1.715170 0.869148
Li -0.129051 2.114786 -0.220477
Li 0.459796 2.298593 -2.296804
6
 Atoms. Timestep: 480
Li -1.808464 -2.402391 1.623085
Li -2.729654 -0.389795 0.558212
Li 1.545113 0.501403 -1.030133
Li 2.634421 1.718508 0.949480
Li -0.092374 2.155307 -0.222684
Li 0.528043 2.230650 -2.191894
6
 Atoms. Timestep: 490
Li -1.831988 -2.218982 1.659332
Li -2.697097 -0.458624 0.510711
Li 1.475847 0.371705 -1.024272
Li 2.668494 1.724699 1.009632
Li -0.014079 2.167762 -0.272433
Li 0.443661 2.177252 -2.174255
6
 Atoms. Timestep: 500
Li -1.795235 -2.307115 1.712545
Li -2.611433 -0.378769 0.535241
Li 1.501363 0.319562 -1.063666
Li 2.765708 1.705699 0.982647
Li -0.186589 2.131540 -0.232101
Li 0.507220 2.150440 -2.102426
6
 Atoms. Timestep: 510
Li -1.837698 -2.193831 1.578998
Li -2.613984 -0.365031 0.501070
Li 1.472462 0.292264 -0.990115
Li 2.650173 1.709978 1.035398
Li -0.199442 2.097651 -0.166222
Li 0.515645 2.187374 -2.176299
6
 Atoms. Timestep: 520
Li -1.839907 -2.338475 1.596219
Li -2.702725 -0.315927 0.561901
Li 1.346753 0.230318 -0.988116
Li 2.596304 1.548991 1.033174
Li -0.162384 2.136625 -0.334930
Li 0.548794 2.178766 -2.006284
6
 Atoms. Timestep: 530
Li -1.906277 -2.377675 1.542856
Li -2.609176 -0.459243 0.551395
Li 1.424668 0.277059 -0.989008
Li 2.563160 1.585884 1.066184
Li -0.141844 2.081964 -0.424750
Li 0.567759 2.292935 -2.011792
6
 Atoms. Timestep: 540
Li -1.954248 -2.244577 1.509886
Li -2.627798 -0.340846 0.593532
Li 1.489792 0.271560 -0.952142
Li 2.563655 1.621646 1.113705
Li -0.176848 2.013000 -0.348567
Li 0.637133 2.204458 -2.007818
6
 Atoms. Timestep: 550
Li -1.823748 -2.209572 1.588084
Li -2.532277 -0.395911 0.511059
Li 1.352896 0.333229 -0.933808
Li 2.509230 1.423571 1.193524
Li -0.192305 1.966823 -0.283326
Li 0.612450 2.304324 -2.033408
6
 Atoms. Timestep: 560
Li -1.842416 -2.149796 1.610355
Li -2.573815 -0.311290 0.547506
Li 1.318385 0.301731 -0.958453
Li 2.421542 1.476462 1.108201
Li -0.208270 1.941900 -0.345155
Li 0.708178 2.251490 -1.983255
6
 Atoms. Timestep: 570
Li -1.836208 -2.146384 1.526920
Li -2.614442 -0.324131 0.514199
Li 1.341054 0.310938 -0.866290
Li 2.443844 1.487280 1.082905
Li -0.166394 1.893418 -0.306736
Li 0.799814 2.115579 -1.905253
6
 Atoms. Timestep: 580
Li -1.892937 -2.158720 1.565389
Li -2.554072 -0.284907 0.554334
Li 1.376416 0.226859 -0.952095
Li 2.539624 1.389393 1.159314
Li -0.147823 1.929558 -0.402317
Li 0.733952 2.111172 -1.875457
6
 Atoms. Timestep: 590
Li -1.840276 -2.075203 1.513207
Li -2.480052 -0.321828 0.476315
Li 1.330400 0.186783 -0.950256
Li 2.451922 1.413501 1.188754
Li -0.117704 1.956048 -0.292182
Li 0.777218 2.056402 -1.870547
6
 Atoms. Timestep: 600
Li -1.903932 -2.205628 1.546870
Li -2.530174 -0.253256 0.523964
Li 1.232343 0.099622 -0.944361
Li 2.413989 1.335720 1.183039
Li -0.160000 1.932676 -0.513245
Li 0.721315 2.059522 -1.727155
6
 Atoms. Timestep: 610
Li -1.758746 -2.154015 1.413669
Li -2.491694 -0.210276 0.585614
Li 1.379891 0.213771 -0.951489
Li 2.433695 1.335367 1.194508
Li -0.141826 1.931663 -0.526448
Li 0.685058 2.124604 -1.777920
6
 Atoms. Timestep: 620
Li -1.875553 -2.129799 1.537346
Li -2.356189 -0.098358 0.576026
Li 1.260109 0.070645 -0.918000
Li 2.357694 1.228975 1.229483
Li -0.201930 1.914780 -0.534027
Li 0.716139 2.167971 -1.727903
6
 Atoms. Timestep: 630
Li -1.884569 -2.206444 1.368357
Li -2.430053 -0.234912 0.584229
Li 1.332316 0.173993 -0.943348
Li 2.272465 1.309856 1.244053
Li -0.240292 1.827657 -0.643321
Li 0.737731 2.082366 -1.798368
6
 Atoms. Timestep: 640
Li -1.872644 -2.128212 1.348266
Li -2.387554 -0.124295 0.562058
Li 1.318711 0.137870 -0.853009
Li 2.280623 1.225108 1.351982
Li -0.189032 1.841881 -0.509970
Li 0.770698 2.143005 -1.687364
6
 Atoms. Timestep: 650
Li -1.906902 -2.106979 1.346551
Li -2.314397 -0.111812 0.547956
Li 1.269805 0.034821 -0.834233
Li 2.127208 1.131692 1.272809
Li -0.127469 1.944600 -0.611598
Li 0.823501 2.076638 -1.593141
6
 Atoms. Timestep: 660
Li -1.828550 -2.164301 1.313891
Li -2.281255 -0.090139 0.524151
Li 1.280948 0.171944 -0.757726
Li 2.204417 1.143508 1.408058
Li -0.198317 1.851949 -0.688085
Li 0.893410 2.046214 -1.677079
6
 Atoms. Timestep: 670
Li -1.928862 -2.186807 1.306167
Li -2.296293 -0.108898 0.723088
Li 1.264827 0.035086 -0.850137
Li 2.063292 1.045466 1.352358
Li -0.247521 1.770349 -0.699670
Li 0.939815 1.987917 -1.595861
6
 Atoms. Timestep: 680
Li -1.866453 -2.050486 1.344049
Li -2.233692 -0.059271 0.585952
Li 1.304223 0.128821 -0.887339
Li 2.168955 1.033192 1.374679
Li -0.218178 1.778374 -0.666165
Li 0.923691 2.006404 -1.541757
6
 Atoms. Timestep: 690
Li -1.909489 -2.007677 1.290790
Li -2.201462 -0.123116 0.461383
Li 1.211745 0.116088 -0.716036
Li 2.124259 0.965694 1.382671
Li -0.256812 1.780360 -0.654804
Li 0.931352 2.006457 -1.579234
6
 Atoms. Timestep: 700
Li -1.824865 -2.083326 1.301318
Li -2.098156 -0.074785 0.520964
Li 1.271272 -0.049225 -0.853565
Li 2.057122 1.015835 1.382545
Li -0.225069 1.854081 -0.734461
Li 0.976933 1.949280 -1.474304
6
 Atoms. Timestep: 710
Li -1.898881 -2.023060 1.266548
Li -2.138469 -0.038296 0.550362
Li 1.241834 -0.020231 -0.711583
Li 1.967599 0.902888 1.430023
Li -0.301694 1.720759 -0.669161
Li 0.967405 1.980303 -1.408336
6
 Atoms. Timestep: 720
Li -1.919477 -2.026401 1.236371
Li -2.180550 -0.052516 0.631853
Li 1.224867 -0.049222 -0.681989
Li 2.058887 0.899992 1.478582
Li -0.298152 1.696946 -0.780930
Li 0.997316 2.009539 -1.372174
6
 Atoms. Timestep: 730
Li -1.926107 -1.936539 1.168113
Li -2.112735 0.085439 0.535310
Li 1.161868 -0.051167 -0.810166
Li 2.062636 1.010660 1.392626
Li -0.283073 1.754859 -0.772045
Li 0.959689 1.897998 -1.444098
6
 Atoms. Timestep: 740
Li -1.972320 -1.954390 1.174826
Li -2.123175 -0.000871 0.551158
Li 1.115914 -0.129059 -0.709349
Li 1.983445 0.846008 1.470363
Li -0.234037 1.622788 -0.853091
Li 1.001381 1.881224 -1.387050
6
 Atoms. Timestep: 750
Li -1.875892 -2.061151 1.170079
Li -2.043402 -0.018553 0.566937
Li 1.161971 -0.087423 -0.890018
Li 1.891064 0.918094 1.526712
Li -0.290755 1.518718 -0.790397
Li 1.071616 1.935064 -1.360476
6
 Atoms. Timestep: 760
Li -1.843250 -1.996103 1.164890
Li -1.974795 0.057231 0.595581
Li 1.105500 0.017561 -0.739301
Li 1.911430 0.892272 1.489423
Li -0.217329 1.657150 -0.947323
Li 1.108054 1.860951 -1.235642
6
 Atoms. Timestep: 770
Li -1.889185 -1.940521 1.166110
Li -1.935674 0.175123 0.585521
Li 1.082356 -0.242233 -0.806179
Li 1.861630 0.781760 1.545295
Li -0.327922 1.723708 -0.791628
Li 0.985604 1.940752 -1.248269
6
 Atoms. Timestep: 780
Li -1.928373 -2.016355 1.153427
Li -2.035535 0.107506 0.620433
Li 1.056356 -0.164496 -0.675406
Li 1.807733 0.741607 1.582587
Li -0.301736 1.580883 -0.867088
Li 1.191215 1.864708 -1.160823
6
 Atoms. Timestep: 790
Li -1.996623 -2.035796 1.173452
Li -1.991736 0.137184 0.627442
Li 1.180830 -0.173656 -0.689491
Li 1.766627 0.655115 1.641541
Li -0.271456 1.590517 -0.905778
Li 1.045702 1.907480 -1.187142
6
 Atoms. Timestep: 800
Li -2.087432 -1.860917 1.107005
Li -1.887754 0.184372 0.597284
Li 1.038886 -0.242678 -0.612243
Li 1.819668 0.620858 1.733981
Li -0.387647 1.628754 -1.054411
Li 1.140205 1.947273 -1.100194
6
 Atoms. Timestep: 810
Li -1.921070 -1.886769 1.017225
Li -1.842830 0.222248 0.663409
Li 1.058891 -0.237608 -0.710413
Li 1.745628 0.630413 1.652421
Li -0.302046 1.536041 -0.951885
Li 1.071229 1.965540 -1.159358
6
 Atoms. Timestep: 820
Li -2.064990 -1.870509 0.977017
Li -1.875941 0.169160 0.659620
Li 1.107095 -0.177830 -0.706465
Li 1.770222 0.483674 1.697936
Li -0.327183 1.500864 -0.917368
Li 1.179962 1.817835 -1.073656
6
 Atoms. Timestep: 830
Li -1.996524 -1.873470 1.001609
Li -1.831678 0.195557 0.550987
Li 1.043062 -0.360548 -0.533655
Li 1.617689 0.521356 1.707205
Li -0.331333 1.599750 -1.055015
Li 1.074018 1.892634 -1.099500
6
 Atoms. Timestep: 840
Li -2.022921 -1.943432 0.954024
Li -1.879610 0.248022 0.630113
Li 1.100804 -0.241742 -0.654181
Li 1.688785 0.417091 1.704281
Li -0.343244 1.426672 -1.089681
Li 1.203584 1.766299 -1.020710
6
 Atoms. Timestep: 850
Li -2.031332 -1.800125 1.000575
Li -1.822793 0.156232 0.596107
Li 1.105337 -0.263692 -0.595020
Li 1.594685 0.412849 1.693042
Li -0.306591 1.421124 -1.052629
Li 1.269416 1.768329 -1.015080
6
 Atoms. Timestep: 860
Li -2.063137 -1.838132 0.981389
Li -1.893965 0.196420 0.593823
Li 1.072466 -0.304033 -0.526835
Li 1.591158 0.387395 1.772934
Li -0.321549 1.380681 -1.054832
Li 1.269444 1.691199 -0.924579
6
 Atoms. Timestep: 870
Li -1.949047 -1.763575 0.923814
Li -1.733857 0.186132 0.673163
Li 1.214543 -0.352944 -0.615472
Li 1.556760 0.443681 1.742268
Li -0.280359 1.521424 -1.098350
Li 1.271069 1.789418 -0.940329
6
 Atoms. Timestep: 880
Li -1.914244 -1.866030 0.936130
Li -1.702462 0.289939 0.603388
Li 1.025750 -0.417120 -0.529059
Li 1.509430 0.402664 1.730227
Li -0.336632 1.473294 -1.072416
Li 1.340162 1.762022 -0.827879
6
 Atoms. Timestep: 890
Li -2.017435 -1.721768 0.913767
Li -1.774548 0.286981 0.534012
Li 1.064653 -0.428204 -0.612785
Li 1.496441 0.389868 1.799513
Li -0.385776 1.423174 -1.235360
Li 1.307469 1.819359 -0.840918
6
 Atoms. Timestep: 900
Li -1.998303 -1.818948 0.900398
Li -1.584806 0.390842 0.594285
Li 0.994206 -0.332914 -0.579772
Li 1.391357 0.349157 1.776312
Li -0.295001 1.395898 -1.172384
Li 1.384512 1.755797 -0.884270
6
 Atoms. Timestep: 910
Li -2.009365 -1.756857 0.801163
Li -1.557825 0.302469 0.590738
Li 0.934454 -0.443746 -0.547494
Li 1.439880 0.348693 1.739617
Li -0.400587 1.373271 -1.159632
Li 1.412651 1.798888 -0.809062
6
 Atoms. Timestep: 920
Li -1.972853 -1.641916 0.818954
Li -1.579845 0.322849 0.639167
Li 1.021065 -0.397111 -0.503342
Li 1.393196 0.241310 1.853271
Li -0.415428 1.283404 -1.263908
Li 1.411587 1.790212 -0.724399
6
 Atoms. Timestep: 930
Li -2.010334 -1.828005 0.816198
Li -1.522351 0.384802 0.649465
Li 0.961567 -0.579742 -0.520459
Li 1.517733 0.305418 1.947508
Li -0.329999 1.284447 -1.224189
Li 1.327479 1.762014 -0.699121
6
 Atoms. Timestep: 940
Li -2.007582 -1.658416 0.922840
Li -1.584831 0.461814 0.736079
Li 0.879270 -0.511513 -0.549051
Li 1.304202 0.281843 1.975896
Li -0.429654 1.367551 -1.299119
Li 1.495243 1.730741 -0.717356
6
 Atoms. Timestep: 950
Li -1.971260 -1.792007 0.765767
Li -1.474746 0.441029 0.681895
Li 0.942884 -0.479894 -0.529850
Li 1.331379 0.164696 1.915919
Li -0.351138 1.287618 -1.264778
Li 1.373917 1.654413 -0.664028
6
 Atoms. Timestep: 960
Li -2.058522 -1.651818 0.699251
Li -1.557671 0.455913 0.692899
Li 0.914964 -0.458072 -0.495007
Li 1.337503 0.102888 1.941467
Li -0.318970 1.275897 -1.210226
Li 1.500908 1.631543 -0.702189
6
 Atoms. Timestep: 970
Li -2.052761 -1.726955 0.728240
Li -1.410589 0.360936 0.736091
Li 0.852401 -0.469397 -0.498753
Li 1.290279 0.027751 1.945694
Li -0.281276 1.274475 -1.314840
Li 1.541251 1.646549 -0.666064
6
 Atoms. Timestep: 980
Li -1.991965 -1.777175 0.669273
Li -1.406908 0.477965 0.680788
Li 0.877698 -0.544439 -0.523375
Li 1.305435 -0.005600 1.994774
Li -0.316077 1.315608 -1.335116
Li 1.463891 1.696760 -0.648713
6
 Atoms. Timestep: 990
Li -1.999604 -1.717310 0.679020
Li -1.409885 0.460043 0.645635
Li 0.906906 -0.503818 -0.555445
Li 1.265485 0.103004 2.057396
Li -0.424474 1.299921 -1.407325
Li 1.511788 1.572203 -0.490410
6
 Atoms. Timestep: 1000
Li -2.083325 -1.631998 0.653962
Li -1.515059 0.508801 0.703459
Li 0.871174 -0.581378 -0.479058
Li 1.170702 -0.016247 2.017545
Li -0.410180 1.210991 -1.363329
Li 1.467792 1.627044 -0.557121
6
 Atoms. Timestep: 1010
Li -2.005059 -1.648056 0.657423
Li -1.409726 0.515182 0.642951
Li 0.943640 -0.620273 -0.393494
Li 1.170988 -0.086682 2.013958
Li -0.470394 1.309066 -1.398532
Li 1.408150 1.547761 -0.521269
6
 Atoms. Timestep: 1020
Li -2.071142 -1.737371 0.679143
Li -1.297328 0.631195 0.689447
Li 0.915447 -0.564745 -0.478813
Li 1.051944 -0.034456 2.145068
Li -0.416797 1.248239 -1.488284
Li 1.558417 1.640247 -0.512961
6
 Atoms. Timestep: 1030
Li -2.103276 -1.655080 0.667457
Li -1.385742 0.489163 0.648673
Li 0.864813 -0.569896 -0.474449
Li 1.143653 -0.071510 2.084277
Li -0.381379 1.105612 -1.507407
Li 1.626436 1.649106 -0.400954
6
 Atoms. Timestep: 1040
Li -1.966822 -1.666838 0.716357
Li -1.325914 0.608483 0.646050
Li 0.867773 -0.611252 -0.457774
Li 1.161438 -0.106670 2.152218
Li -0.448828 1.219534 -1.531742
Li 1.571368 1.717794 -0.430391
6
 Atoms. Timestep: 1050
Li -2.081480 -1.672831 0.598900
Li -1.224987 0.624036 0.752145
Li 0.818519 -0.578223 -0.416253
Li 1.104949 -0.198659 2.139287
Li -0.402513 1.169034 -1.480987
Li 1.644493 1.597968 -0.434884
6
 Atoms. Timestep: 1060
Li -2.084281 -1.632725 0.568391
Li -1.209850 0.545497 0.765499
Li 0.780330 -0.585639 -0.367258
Li 1.046162 -0.209626 2.170991
Li -0.395121 1.054323 -1.437739
Li 1.661348 1.634022 -0.367304
6
 Atoms. Timestep: 1070
Li -2.030922 -1.616549 0.512934
Li -1.223767 0.632497 0.737870
Li 0.784573 -0.691750 -0.455374
Li 1.171116 -0.235207 2.111713
Li -0.357690 1.123890 -1.527790
Li 1.713017 1.581366 -0.272302
6
 Atoms. Timestep: 1080
Li -2.146836 -1.645604 0.625746
Li -1.153007 0.633204 0.635084
Li 0.804248 -0.696613 -0.402148
Li 1.083130 -0.291267 2.086865
Li -0.382646 1.094906 -1.541915
Li 1.582002 1.523197 -0.322627
6
 Atoms. Timestep: 1090
Li -1.960393 -1.628889 0.515745
Li -1.172976 0.549296 0.739236
Li 0.712318 -0.806270 -0.345004
Li 1.018301 -0.313192 2.120584
Li -0.451192 1.087745 -1.645762
Li 1.651471 1.500011 -0.244921
6
 Atoms. Timestep: 1100
Li -2.016315 -1.587601 0.620618
Li -1.251614 0.659028 0.715296
Li 0.862210 -0.826311 -0.452277
Li 0.989516 -0.423138 2.127717
Li -0.456290 1.117062 -1.568921
Li 1.763293 1.534410 -0.165261
6
 Atoms. Timestep: 1110
Li -2.049769 -1.605937 0.558007
Li -1.163693 0.683162 0.726984
Li 0.868671 -0.650076 -0.324180
Li 0.886495 -0.393099 2.176161
Li -0.510831 1.119472 -1.708272
Li 1.663754 1.577015 -0.250582
6
 Atoms. Timestep: 1120
Li -2.060158 -1.543496 0.430762
Li -1.109691 0.715314 0.657112
Li 0.776821 -0.778320 -0.348954
Li 0.929279 -0.332445 2.242613
Li -0.509119 1.129654 -1.562533
Li 1.635423 1.465203 -0.259901
6
 Atoms. Timestep: 1130
Li -2.118880 -1.540153 0.506601
Li -1.106350 0.821837 0.719968
Li 0.825798 -0.794426 -0.406322
Li 0.946689 -0.395565 2.297539
Li -0.432008 0.964744 -1.650605
Li 1.726268 1.437765 -0.195928
6
 Atoms. Timestep: 1140
Li -2.112323 -1.662202 0.483897
Li -1.080192 0.660246 0.762427
Li 0.749367 -0.741383 -0.355119
Li 0.853875 -0.398905 2.319781
Li -0.452069 1.091889 -1.635328
Li 1.800939 1.541123 -0.126989
6
 Atoms. Timestep: 1150
Li -2.024376 -1.547322 0.427214
Li -1.149652 0.667920 0.657673
Li 0.807910 -0.878351 -0.290784
Li 0.823704 -0.377705 2.259442
Li -0.497516 1.045204 -1.595166
Li 1.653671 1.448801 -0.150055
6
 Atoms. Timestep: 1160
Li -2.143462 -1.439260 0.389230
Li -0.974043 0.770383 0.671213
Li 0.694417 -0.743355 -0.361694
Li 0.843427 -0.439545 2.170719
Li -0.628337 0.957594 -1.720457
Li 1.722836 1.432660 -0.166328
6
 Atoms. Timestep: 1170
Li -2.091782 -1.649835 0.463558
Li -1.000317 0.844120 0.715845
Li 0.793477 -0.808559 -0.337534
Li 0.764912 -0.581878 2.389310
Li -0.484837 0.920845 -1.778869
Li 1.749027 1.546185 -0.091674
6
 Atoms. Timestep: 1180
Li -2.141902 -1.590624 0.334143
Li -0.978059 0.730804 0.775154
Li 0.739693 -0.846923 -0.338870
Li 0.797454 -0.545179 2.348615
Li -0.501681 1.089859 -1.730805
Li 1.812164 1.455434 -0.009020
6
 Atoms. Timestep: 1190
Li -2.088069 -1.519269 0.463132
Li -0.970097 0.759173 0.637015
Li 0.724325 -0.865350 -0.337491
Li 0.716147 -0.543006 2.266755
Li -0.392618 0.899192 -1.753361
Li 1.898259 1.519921 0.017907
6
 Atoms. Timestep: 1200
Li -2.097181 -1.554075 0.375645
Li -0.934987 0.778334 0.653338
Li 0.746360 -0.920607 -0.315389
Li 0.850308 -0.566701 2.463249
Li -0.506929 0.877559 -1.823632
Li 1.818264 1.395538 -0.089993
6
 Atoms. Timestep: 1210
Li -2.196683 -1.447561 0.310949
Li -0.963678 0.685219 0.810856
Li 0.714501 -0.918604 -0.264389
Li 0.683074 -0.646407 2.414899
Li -0.448823 0.945377 -1.824558
Li 1.869208 1.435738 -0.064952
6
 Atoms. Timestep: 1220
Li -2.087400 -1.391560 0.477826
Li -1.058333 0.733396 0.803449
Li 0.695345 -0.907520 -0.288452
Li 0.705369 -0.546392 2.401825
Li -0.567090 0.987528 -1.831472
Li 1.791967 1.380801 -0.024017
6
 Atoms. Timestep: 1230
Li -2.117194 -1.552547 0.377632
Li -1.029962 0.822264 0.790751
Li 0.670805 -0.860571 -0.266124
Li 0.659821 -0.596685 2.393771
Li -0.469428 0.930363 -1.819891
Li 1.855313 1.398997 -0.001726
6
 Atoms. Timestep: 1240
Li -2.099714 -1.490244 0.444803
Li -1.005088 0.753076 0.755522
Li 0.697772 -0.947043 -0.403560
Li 0.667232 -0.798382 2.480059
Li -0.503630 0.937127 -1.834072
Li 1.932465 1.364829 0.013792
6
 Atoms. Timestep: 1250
Li -2.106531 -1.484571 0.408479
Li -0.851102 0.827965 0.808569
Li 0.740463 -1.013294 -0.353077
Li 0.591563 -0.656692 2.522112
Li -0.444083 0.903181 -1.883748
Li 1.863291 1.390334 0.142964
6
 Atoms. Timestep: 1260
Li -2.151509 -1.465374 0.362076
Li -0.861559 0.905721 0.743597
Li 0.647988 -0.939683 -0.312491
Li 0.627335 -0.630931 2.468650
Li -0.455969 0.897828 -1.874326
Li 1.897847 1.382781 0.084172
6
 Atoms. Timestep: 1270
Li -2.158681 -1.519844 0.258928
Li -0.896089 0.932049 0.705456
Li 0.655084 -0.992770 -0.301490
Li 0.667970 -0.661703 2.445982
Li -0.514422 0.908127 -1.875394
Li 1.932679 1.542127 0.048078
6
 Atoms. Timestep: 1280
Li -2.182719 -1.489566 0.375621
Li -0.861344 0.887825 0.870001
Li 0.750917 -0.975905 -0.242392
Li 0.597103 -0.742673 2.398254
Li -0.518454 0.850242 -1.849660
Li 1.940876 1.388193 0.135932
6
 Atoms. Timestep: 1290
Li -2.107967 -1.476463 0.286663
Li -0.866718 0.891219 0.810011
Li 0.657993 -0.982658 -0.223089
Li 0.618500 -0.679901 2.516472
Li -0.473309 0.815442 -1.873962
Li 2.004210 1.353419 0.095937
6
 Atoms. Timestep: 1300
Li -2.167622 -1.407949 0.203242
Li -0.759657 0.927154 0.759417
Li 0.712255 -0.991606 -0.255681
Li 0.473344 -0.754231 2.514601
Li -0.473126 0.833451 -1.889846
Li 1.854162 1.401365 0.105695
6
 Atoms. Timestep: 1310
Li -2.020863 -1.418650 0.349077
Li -0.803783 0.841285 0.799610
Li 0.744375 -0.956981 -0.183524
Li 0.572666 -0.829548 2.450129
Li -0.509206 0.875040 -1.913274
Li 1.924344 1.340152 0.161039
6
 Atoms. Timestep: 1320
Li -2.177889 -1.386033 0.197859
Li -0.779911 0.813181 0.757540
Li 0.729835 -1.099630 -0.229235
Li 0.571604 -0.669971 2.550129
Li -0.508899 0.646752 -1.878592
Li 1.982709 1.334639 0.224436
6
 Atoms. Timestep: 1330
Li -2.145711 -1.428721 0.253476
Li -0.830745 0.814602 0.711813
Li 0.604527 -1.024372 -0.261181
Li 0.499520 -0.802973 2.470035
Li -0.547875 0.893648 -1.976596
Li 1.912596 1.362991 0.145512
6
 Atoms. Timestep: 1340
Li -2.158796 -1.439442 0.283375
Li -0.749544 0.944891 0.741084
Li 0.586700 -1.054464 -0.250255
Li 0.658688 -0.863687 2.490042
Li -0.496732 0.824640 -2.046110
Li 2.002791 1.359645 0.204370
6
 Atoms. Timestep: 1350
Li -2.128794 -1.461546 0.215079
Li -0.828985 0.815614 0.850246
Li 0.546162 -1.034338 -0.260556
Li 0.530890 -0.832453 2.599180
Li -0.507643 0.858377 -1.977941
Li 1.920124 1.316050 0.205014
6
 Atoms. Timestep: 1360
Li -2.138667 -1.469401 0.323245
Li -0.744004 0.967926 0.810889
Li 0.617394 -1.025366 -0.242444
Li 0.547245 -0.753218 2.500118
Li -0.627312 0.877342 -1.936272
Li 1.950251 1.345619 0.275657
6
 Atoms. Timestep: 1370
Li -2.100153 -1.467621 0.186238
Li -0.678431 0.888010 0.756029
Li 0.601979 -1.058430 -0.319045
Li 0.469619 -0.898995 2.445035
Li -0.533608 0.849750 -2.048774
Li 2.113806 1.356126 0.247539
6
 Atoms. Timestep: 1380
Li -2.107267 -1.319422 0.272513
Li -0.756049 0.903813 0.770705
Li 0.683637 -1.001996 -0.239957
Li 0.561542 -0.827365 2.598665
Li -0.485861 0.792939 -2.042935
Li 2.013651 1.272134 0.219832
6
 Atoms. Timestep: 1390
Li -2.098237 -1.465261 0.245169
Li -0.730380 0.930961 0.744448
Li 0.648628 -0.971992 -0.294529
Li 0.497162 -0.812648 2.547510
Li -0.541964 0.858605 -1.930531
Li 1.947578 1.322522 0.215667
6
 Atoms. Timestep: 1400
Li -2.157275 -1.451314 0.306964
Li -0.769442 0.905085 0.821640
Li 0.586675 -1.085032 -0.188579
Li 0.498564 -0.850741 2.554800
Li -0.532072 0.760831 -1.953653
Li 2.040049 1.327166 0.284166
6
 Atoms. Timestep: 1410
Li -2.139319 -1.468620 0.197432
Li -0.801814 0.920258 0.696590