# LAMMPS data file for 7 Li atoms

7 atoms
1 atom types

-8.427600 6.713800 xlo xhi
-9.282600 7.570700 ylo yhi
-7.998200 7.141300 zlo zhi

Masses

1 6.94

Atoms

1 1 -1.713800 -2.570700 2.141300
2 1 -3.427600 -0.856900 0.427500
3 1 0.000000 -0.856900 0.427500
4 1 0.000000 -4.282600 0.427500
5 1 1.713800 0.856900 -1.284400
6 1 0.000000 2.570700 -2.998200
7 1 -1.409000 1.010800 -0.487100
