7
 Atoms. Timestep: 220
Li -2.03428 -2.35686 1.56758
Li -1.82749 -0.796656 -0.625331
Li 0.0761615 -0.64858 1.58657
Li -0.059533 -2.83897 -0.33607
Li 0.809786 -0.267942 -1.07131
Li -1.09154 1.11949 -2.57893
Li -0.709707 1.66082 0.111589
7
 Atoms. Timestep: 240
Li -2.1332 -2.51001 1.61836
Li -1.88785 -0.686747 -0.601224
Li 0.0114605 -0.629448 1.41889
Li 0.0348383 -2.77934 -0.21236
Li 0.913471 -0.314721 -1.20515
Li -1.09151 1.0987 -2.54878
Li -0.683805 1.69286 0.184371
7
 Atoms. Timestep: 260
Li -2.06094 -2.40312 1.57227
Li -1.84015 -0.774409 -0.606047
Li 0.0483547 -0.64392 1.54009
Li -0.0327332 -2.81895 -0.294134
Li 0.83194 -0.278707 -1.11775
Li -1.08963 1.11606 -2.56566
Li -0.693441 1.67435 0.125333
7
 Atoms. Timestep: 280
Li -2.07514 -2.4142 1.5992
Li -1.85676 -0.74238 -0.631899
Li 0.0624831 -0.638945 1.52159
Li -0.0217138 -2.82085 -0.296406
Li 0.858574 -0.289699 -1.1134
Li -1.09465 1.10894 -2.57276
Li -0.70938 1.66844 0.147771
7
 Atoms. Timestep: 300
Li -2.12345 -2.50117 1.60174
Li -1.87777 -0.708117 -0.584221
Li 0.00287456 -0.634174 1.42857
Li 0.0263716 -2.77684 -0.210716
Li 0.898372 -0.307338 -1.2084
Li -1.0869 1.10268 -2.54461
Li -0.676103 1.69626 0.171741
7
 Atoms. Timestep: 320
Li -2.03676 -2.3616 1.56843
Li -1.82769 -0.792613 -0.628388
Li 0.0762324 -0.644461 1.59096
Li -0.0556198 -2.84267 -0.337215
Li 0.807484 -0.26945 -1.07029
Li -1.09479 1.12043 -2.57872
Li -0.705454 1.66166 0.109325
7
 Atoms. Timestep: 340
Li -2.12048 -2.4837 1.62213
Li -1.88505 -0.694014 -0.615133
Li 0.028942 -0.635412 1.43211
Li 0.0200404 -2.78489 -0.232485
Li 0.911758 -0.311004 -1.18075
Li -1.09141 1.098 -2.5582
Li -0.700408 1.68232 0.186431
7
 Atoms. Timestep: 360
Li -2.07733 -2.43653 1.56612
Li -1.84495 -0.768121 -0.583042
Li 0.0231567 -0.638444 1.51699
Li -0.0151279 -2.80761 -0.264034
Li 0.837831 -0.282437 -1.15569
Li -1.08599 1.1158 -2.55162
Li -0.674191 1.68864 0.125373
7
 Atoms. Timestep: 380
Li -2.06303 -2.39133 1.6036
Li -1.85233 -0.744727 -0.65256
Li 0.0820241 -0.639543 1.5453
Li -0.0327093 -2.8331 -0.322069
Li 0.850879 -0.288897 -1.08042
Li -1.10168 1.11066 -2.5847
Li -0.719756 1.65824 0.144958
7
 Atoms. Timestep: 400
Li -2.12389 -2.49989 1.60049
Li -1.87931 -0.712967 -0.575113
Li -0.00188121 -0.639901 1.41551
Li 0.0236374 -2.76842 -0.202285
Li 0.905033 -0.304226 -1.22046
Li -1.07949 1.10015 -2.54097
Li -0.680698 1.69656 0.17692
7
 Atoms. Timestep: 420
Li -2.04847 -2.38635 1.56624
Li -1.82966 -0.782681 -0.622525
Li 0.0643045 -0.633937 1.58839
Li -0.0402943 -2.84378 -0.325416
Li 0.805022 -0.275203 -1.08468
Li -1.09958 1.12265 -2.57241
Li -0.687925 1.6706 0.104506
7
 Atoms. Timestep: 440
Li -2.10117 -2.44753 1.62471
Li -1.88041 -0.705865 -0.631765
Li 0.0500967 -0.64557 1.45031
Li -0.000726474 -2.79083 -0.258219
Li 0.909015 -0.306269 -1.14707
Li -1.09284 1.09803 -2.57212
Li -0.720566 1.66934 0.188253
7
 Atoms. Timestep: 460
Li -2.09466 -2.46463 1.56527
Li -1.85073 -0.760427 -0.565162
Li 0.00463271 -0.63275 1.49339
Li -7.30043e-06 -2.79858 -0.238906
Li 0.845941 -0.283257 -1.19223
Li -1.07858 1.113 -2.53685
Li -0.663198 1.69795 0.128593
7
 Atoms. Timestep: 480
Li -2.05562 -2.38535 1.60092
Li -1.84782 -0.745517 -0.66203
Li 0.0876771 -0.636923 1.56415
Li -0.0346258 -2.84085 -0.334581
Li 0.841157 -0.293537 -1.05849
Li -1.11291 1.11579 -2.59377
Li -0.714466 1.65769 0.137905
7
 Atoms. Timestep: 500
Li -2.11666 -2.47964 1.60429
Li -1.87988 -0.720681 -0.577608
Li 0.0069408 -0.65021 1.41067
Li 0.0103708 -2.76478 -0.208189
Li 0.912291 -0.295936 -1.21745
Li -1.07042 1.09517 -2.54232
Li -0.699242 1.68737 0.18471
7
 Atoms. Timestep: 520
Li -2.06705 -2.42176 1.56378
Li -1.83328 -0.77043 -0.610387
Li 0.0466573 -0.620114 1.57793
Li -0.0188151 -2.84206 -0.30552
Li 0.804644 -0.283231 -1.11048
Li -1.10256 1.12518 -2.56181
Li -0.666191 1.68371 0.100587
7
 Atoms. Timestep: 540
Li -2.0792 -2.41466 1.62228
Li -1.87416 -0.71806 -0.645867
Li 0.0660287 -0.656112 1.47215
Li -0.0200755 -2.79652 -0.281386
Li 0.902754 -0.303539 -1.11108
Li -1.09936 1.10042 -2.58768
Li -0.732586 1.65977 0.185683
7
 Atoms. Timestep: 560
Li -2.10966 -2.47788 1.57243
Li -1.85693 -0.753714 -0.556929
Li -0.000726359 -0.629987 1.47124
Li 0.00716539 -2.79261 -0.225169
Li 0.857452 -0.278618 -1.22083
Li -1.06581 1.1063 -2.5239
Li -0.668085 1.69781 0.137262
7
 Atoms. Timestep: 580
Li -2.05441 -2.39749 1.59149
Li -1.84379 -0.7449 -0.659041
Li 0.0792535 -0.630632 1.57576
Li -0.0266087 -2.8436 -0.332252
Li 0.83021 -0.304108 -1.05032
Li -1.1269 1.12462 -2.5989
Li -0.694365 1.66741 0.127352
7
 Atoms. Timestep: 600
Li -2.10326 -2.44862 1.61018
Li -1.87932 -0.728141 -0.589369
Li 0.0236625 -0.662609 1.41543
Li -0.0089734 -2.76625 -0.224292
Li 0.917633 -0.284207 -1.20162
Li -1.06343 1.08876 -2.54766
Li -0.722919 1.67237 0.191432
7
 Atoms. Timestep: 620
Li -2.08912 -2.45503 1.56516
Li -1.83808 -0.760155 -0.596214
Li 0.031637 -0.607537 1.55901
Li 0.00158871 -2.83719 -0.284821
Li 0.809308 -0.290488 -1.14143
Li -1.09976 1.12634 -2.54959
Li -0.652171 1.69536 0.101984
7
 Atoms. Timestep: 640
Li -2.0585 -2.39583 1.61241
Li -1.86696 -0.726965 -0.653741
Li 0.0704111 -0.663047 1.49625
Li -0.0317069 -2.80224 -0.295297
Li 0.89103 -0.305111 -1.0797
Li -1.11265 1.10653 -2.60166
Li -0.728216 1.65796 0.175829
7
 Atoms. Timestep: 660
Li -2.11994 -2.47351 1.58683
Li -1.8631 -0.749334 -0.559437
Li 0.00808094 -0.631788 1.4529
Li 0.00440777 -2.78923 -0.224909
Li 0.871885 -0.268139 -1.23722
Li -1.04925 1.09556 -2.51503
Li -0.688672 1.68774 0.150966
7
 Atoms. Timestep: 680
Li -2.05941 -2.42145 1.57928
Li -1.84046 -0.744265 -0.646099
Li 0.0619849 -0.622256 1.57792
Li -0.0118043 -2.84173 -0.318613
Li 0.820703 -0.318712 -1.05542
Li -1.13941 1.13587 -2.59966
Li -0.668199 1.68384 0.11669
7
 Atoms. Timestep: 700
Li -2.08609 -2.41874 1.61336
Li -1.87776 -0.732256 -0.605807
Li 0.0398812 -0.67318 1.4305
Li -0.0278608 -2.77278 -0.243455
Li 0.917607 -0.272199 -1.17773
Li -1.06291 1.08307 -2.55528
Li -0.739463 1.65739 0.19251
7
 Atoms. Timestep: 720
Li -2.11113 -2.47526 1.57343
Li -1.84364 -0.755224 -0.584125
Li 0.0260954 -0.600436 1.53262
Li 0.014607 -2.82861 -0.270129
Li 0.821157 -0.294167 -1.17092
Li -1.08889 1.12424 -2.5386
Li -0.6548 1.70076 0.111816
7
 Atoms. Timestep: 740
Li -2.04209 -2.39508 1.59583
Li -1.85932 -0.730788 -0.654273
Li 0.0617948 -0.664088 1.52033
Li -0.0328018 -2.80883 -0.297211
Li 0.873886 -0.311584 -1.05819
Li -1.13108 1.11676 -2.61117
Li -0.706983 1.66491 0.158777
7
 Atoms. Timestep: 760
Li -2.12439 -2.4563 1.60404
Li -1.86903 -0.747256 -0.570383
Li 0.0264873 -0.637197 1.44124
Li -0.0062154 -2.78764 -0.235453
Li 0.886671 -0.253862 -1.24007
Li -1.03345 1.08224 -2.51175
Li -0.716663 1.67133 0.166471
7
 Atoms. Timestep: 780
Li -2.06943 -2.44641 1.57011
Li -1.83798 -0.745401 -0.628067
Li 0.0440954 -0.615057 1.56926
Li 0.00416513 -2.83576 -0.300618
Li 0.816325 -0.333732 -1.07081
Li -1.14509 1.14669 -2.59629
Li -0.648682 1.70097 0.110516
7
 Atoms. Timestep: 800
Li -2.06771 -2.40051 1.60973
Li -1.87527 -0.731124 -0.622049
Li 0.0480171 -0.678188 1.45498
Li -0.0403005 -2.78428 -0.258476
Li 0.909448 -0.263324 -1.15155
Li -1.07174 1.08081 -2.56327
Li -0.739038 1.64791 0.184733
7
 Atoms. Timestep: 820
Li -2.13022 -2.47782 1.58858
Li -1.84987 -0.756846 -0.576613
Li 0.0326522 -0.60078 1.50204
Li 0.0171667 -2.81592 -0.265262
Li 0.839969 -0.292775 -1.19363
Li -1.07082 1.11744 -2.53115
Li -0.675481 1.698 0.130131
7
 Atoms. Timestep: 840
Li -2.03161 -2.40858 1.57672
Li -1.85155 -0.729774 -0.648964
Li 0.0440546 -0.659848 1.54095
Li -0.0247414 -2.81688 -0.288965
Li 0.854056 -0.321668 -1.04919
Li -1.14989 1.13008 -2.61438
Li -0.676914 1.67797 0.137925
7
 Atoms. Timestep: 860
Li -2.12294 -2.43599 1.61779
Li -1.87445 -0.746435 -0.58525
Li 0.0462134 -0.643067 1.43887
Li -0.0197531 -2.78758 -0.250841
Li 0.897876 -0.23959 -1.23093
Li -1.02431 1.06935 -2.51454
Li -0.739232 1.65461 0.17901
7
 Atoms. Timestep: 880
Li -2.08275 -2.46207 1.56896
Li -1.83677 -0.749311 -0.610177
Li 0.0335462 -0.612374 1.55021
Li 0.0156626 -2.82599 -0.285676
Li 0.820002 -0.344939 -1.09219
Li -1.13978 1.15325 -2.58952
Li -0.646505 1.71273 0.112483
7
 Atoms. Timestep: 900
Li -2.05018 -2.39863 1.5981
Li -1.8717 -0.724782 -0.634689
Li 0.0444236 -0.675956 1.4858
Li -0.0431082 -2.8004 -0.264742
Li 0.892846 -0.260223 -1.1283
Li -1.0897 1.08446 -2.57004
Li -0.719178 1.64682 0.167974
7
 Atoms. Timestep: 920
Li -2.14461 -2.46593 1.60718
Li -1.85668 -0.763713 -0.573786
Li 0.0484855 -0.607388 1.4723
Li 0.0103149 -2.79962 -0.269923
Li 0.86256 -0.286605 -1.20668
Li -1.04966 1.10582 -2.52851
Li -0.707006 1.68874 0.153517
7
 Atoms. Timestep: 940
Li -2.02755 -2.42698 1.56115
Li -1.84422 -0.725644 -0.641022
Li 0.0248993 -0.653378 1.55431
Li -0.0121039 -2.82591 -0.275874
Li 0.836292 -0.332534 -1.05237
Li -1.16282 1.14378 -2.61082
Li -0.651094 1.69197 0.11873
7
 Atoms. Timestep: 960
Li -2.11616 -2.42245 1.62253
Li -1.87876 -0.745654 -0.599329
Li 0.0586957 -0.645878 1.44701
Li -0.0306007 -2.78961 -0.264183
Li 0.901851 -0.229726 -1.21341
Li -1.02672 1.061 -2.52286
Li -0.744905 1.64362 0.184345
7
 Atoms. Timestep: 980
Li -2.09783 -2.46338 1.5778
Li -1.83737 -0.755451 -0.596097
Li 0.0347222 -0.615806 1.5234
Li 0.0193158 -2.81263 -0.278934
Li 0.83218 -0.348756 -1.11515
Li -1.12247 1.1519 -2.58041
Li -0.665147 1.71542 0.123481
7
 Atoms. Timestep: 1000
Li -2.03485 -2.41021 1.58085
Li -1.86702 -0.715324 -0.64271
Li 0.0310078 -0.667693 1.51805
Li -0.0370299 -2.82007 -0.261693
Li 0.870685 -0.263916 -1.11121
Li -1.11309 1.09508 -2.57476
Li -0.686303 1.65344 0.145579
7
 Atoms. Timestep: 1020
Li -2.15352 -2.4486 1.62374
Li -1.86349 -0.772722 -0.573909
Li 0.0664393 -0.616684 1.44877
Li -0.00148904 -2.78156 -0.280061
Li 0.883726 -0.277801 -1.21003
Li -1.03172 1.09126 -2.53067
Li -0.736547 1.6774 0.176255
7
 Atoms. Timestep: 1040
Li -2.02965 -2.4401 1.55454
Li -1.83841 -0.720617 -0.633639
Li 0.0125957 -0.648432 1.55771
Li -0.000519331 -2.8343 -0.264613
Li 0.825476 -0.340426 -1.06495
Li -1.16438 1.15385 -2.60143
Li -0.641713 1.70132 0.106478
7
 Atoms. Timestep: 1060
Li -2.10489 -2.42116 1.61581
Li -1.88111 -0.744456 -0.609782
Li 0.0589389 -0.643615 1.46454
Li -0.0350012 -2.79467 -0.270099
Li 0.896813 -0.227848 -1.19171
Li -1.04246 1.06108 -2.53529
Li -0.728898 1.64197 0.180625
7
 Atoms. Timestep: 1080
Li -2.11353 -2.45253 1.59471
Li -1.83997 -0.761805 -0.58691
Li 0.0464356 -0.624429 1.49342
Li 0.0153595 -2.79626 -0.281617
Li 0.850408 -0.34364 -1.13644
Li -1.09625 1.14081 -2.57005
Li -0.699052 1.70915 0.140984
7
 Atoms. Timestep: 1100
Li -2.02245 -2.42665 1.56299
Li -1.86163 -0.70618 -0.647012
Li 0.0143472 -0.656819 1.54605
Li -0.0262971 -2.84124 -0.252797
Li 0.848132 -0.273086 -1.10097
Li -1.13562 1.1113 -2.57746
Li -0.653088 1.66397 0.123304
7
 Atoms. Timestep: 1120
Li -2.15695 -2.43609 1.63297
Li -1.86916 -0.780489 -0.575132
Li 0.0783484 -0.624445 1.43552
Li -0.0124369 -2.76461 -0.289545
Li 0.898234 -0.269917 -1.20567
Li -1.02344 1.07767 -2.53649
Li -0.751198 1.66918 0.19245
7
 Atoms. Timestep: 1140
Li -2.03725 -2.44165 1.55944
Li -1.83536 -0.71638 -0.628205
Li 0.012176 -0.647711 1.55068
Li 0.00579916 -2.83983 -0.260668
Li 0.824675 -0.341825 -1.0831
Li -1.15204 1.1562 -2.58817
Li -0.654606 1.70249 0.104135
7
 Atoms. Timestep: 1160
Li -2.09013 -2.43099 1.59927
Li -1.88068 -0.743581 -0.616554
Li 0.0478359 -0.636558 1.48797
Li -0.0327399 -2.80334 -0.266712
Li 0.883487 -0.235207 -1.16905
Li -1.06894 1.07165 -2.55011
Li -0.695427 1.64933 0.169279
7
 Atoms. Timestep: 1180
Li -2.12897 -2.43738 1.61469
Li -1.84422 -0.765806 -0.581605
Li 0.062484 -0.635329 1.46579
Li 0.00742668 -2.77816 -0.290745
Li 0.870409 -0.331105 -1.15455
Li -1.0679 1.12135 -2.55929
Li -0.735829 1.69774 0.159811
7
 Atoms. Timestep: 1200
Li -2.01345 -2.43786 1.55005
Li -1.85646 -0.700673 -0.648855
Li 0.00250831 -0.647448 1.56484
Li -0.0166259 -2.86107 -0.244017
Li 0.830709 -0.284187 -1.0963
Li -1.15019 1.12917 -2.57888
Li -0.633094 1.67335 0.107259
7
 Atoms. Timestep: 1220
Li -2.15519 -2.43521 1.63201
Li -1.87246 -0.784843 -0.577148
Li 0.0789886 -0.627495 1.43426
Li -0.0179995 -2.75194 -0.292752
Li 0.902573 -0.266594 -1.19615
Li -1.02899 1.06985 -2.54435
Li -0.743521 1.66754 0.198234
7
 Atoms. Timestep: 1240
Li -2.04953 -2.4318 1.57434
Li -1.83586 -0.713526 -0.623657
Li 0.02305 -0.651933 1.53518
Li 0.00575864 -2.84035 -0.266037
Li 0.834236 -0.335097 -1.10369
Li -1.12762 1.14834 -2.57322
Li -0.686639 1.69567 0.111184
7
 Atoms. Timestep: 1260
Li -2.07304 -2.44522 1.57801
Li -1.8772 -0.744431 -0.621612
Li 0.0316424 -0.626916 1.51228
Li -0.0270099 -2.81543 -0.256468
Li 0.864725 -0.249934 -1.14696
Li -1.09952 1.09155 -2.56574
Li -0.656192 1.66169 0.154585
7
 Atoms. Timestep: 1280
Li -2.14326 -2.42745 1.6317
Li -1.84925 -0.765636 -0.578618
Li 0.0746424 -0.644873 1.44557
Li 0.000707948 -2.76029 -0.300444
Li 0.88762 -0.315327 -1.1695
Li -1.04575 1.09816 -2.54865
Li -0.761315 1.68671 0.174041
7
 Atoms. Timestep: 1300
Li -2.00842 -2.43703 1.54579
Li -1.85271 -0.700562 -0.648378
Li 0.00115689 -0.642811 1.57144
Li -0.0125583 -2.87644 -0.241167
Li 0.822651 -0.292943 -1.09538
Li -1.15167 1.14332 -2.57982
Li -0.635054 1.67776 0.10161
7
 Atoms. Timestep: 1320
Li -2.14855 -2.44644 1.62166
Li -1.87254 -0.785395 -0.581533
Li 0.0685952 -0.624748 1.44412
Li -0.0168575 -2.74633 -0.287133
Li 0.895638 -0.269755 -1.18337
Li -1.04797 1.07143 -2.55287
Li -0.71491 1.67254 0.193223
7
 Atoms. Timestep: 1340
Li -2.06551 -2.4166 1.59427
Li -1.83981 -0.711774 -0.617411
Li 0.0392498 -0.65979 1.51501
Li 0.00156054 -2.83446 -0.278231
Li 0.852004 -0.321564 -1.12517
Li -1.09732 1.13087 -2.55827
Li -0.726773 1.68463 0.123897
7
 Atoms. Timestep: 1360
Li -2.05504 -2.45506 1.55866
Li -1.87132 -0.747873 -0.627134
Li 0.0189242 -0.617784 1.5324
Li -0.0225605 -2.82994 -0.245171
Li 0.844744 -0.267759 -1.12566
Li -1.12561 1.1163 -2.58101
Li -0.625743 1.67341 0.142019
7
 Atoms. Timestep: 1380
Li -2.1551 -2.42929 1.64101
Li -1.8539 -0.761154 -0.57732
Li 0.0766 -0.65015 1.43619
Li -0.000591998 -2.74508 -0.30453
Li 0.898205 -0.301254 -1.18191
Li -1.03638 1.07771 -2.53869
Li -0.76543 1.68052 0.17935
7
 Atoms. Timestep: 1400
Li -2.00818 -2.42363 1.5507
Li -1.8514 -0.705346 -0.644203
Li 0.0108628 -0.644117 1.56554
Li -0.0154591 -2.88453 -0.247224
Li 0.826061 -0.296434 -1.09707
Li -1.13942 1.14902 -2.58062
Li -0.659065 1.67632 0.10698
7
 Atoms. Timestep: 1420
Li -2.13714 -2.46408 1.60598
Li -1.86934 -0.783113 -0.590738
Li 0.052746 -0.617419 1.46212
Li -0.0113165 -2.74948 -0.27449
Li 0.878732 -0.27861 -1.16811
Li -1.07491 1.08308 -2.56123
Li -0.675374 1.68092 0.180575
7
 Atoms. Timestep: 1440
Li -2.084 -2.40472 1.61275
Li -1.84613 -0.710637 -0.607162
Li 0.0521684 -0.668654 1.49467
Li -0.00249453 -2.82205 -0.291274
Li 0.873961 -0.305023 -1.1474
Li -1.06974 1.10774 -2.54445
Li -0.760366 1.67465 0.136962
7
 Atoms. Timestep: 1460
Li -2.03802 -2.45397 1.54676
Li -1.86454 -0.753287 -0.633875
Li 0.0165367 -0.611863 1.54452
Li -0.023312 -2.84503 -0.239406
Li 0.828288 -0.283868 -1.10503
Li -1.14008 1.13937 -2.59484
Li -0.615474 1.67995 0.135973
7
 Atoms. Timestep: 1480
Li -2.1626 -2.44349 1.64091
Li -1.85718 -0.754051 -0.578658
Li 0.0669541 -0.650056 1.43868
Li 0.00472104 -2.73513 -0.299353
Li 0.89965 -0.292453 -1.19202
Li -1.04162 1.06591 -2.5302
Li -0.746526 1.68058 0.174737
7
 Atoms. Timestep: 1500
Li -2.01383 -2.40346 1.56194
Li -1.8528 -0.712604 -0.634171
Li 0.0268069 -0.650202 1.54938
Li -0.0229004 -2.88339 -0.260858
Li 0.840397 -0.294258 -1.10157
Li -1.11797 1.14413 -2.58094
Li -0.696305 1.67108 0.120329
7
 Atoms. Timestep: 1520
Li -2.12104 -2.47922 1.5906
Li -1.86369 -0.779484 -0.606546
Li 0.0397492 -0.608394 1.48406
Li -0.00622537 -2.76155 -0.260228
Li 0.855447 -0.290166 -1.15027
Li -1.10129 1.10192 -2.56911
Li -0.639546 1.6882 0.165582
7
 Atoms. Timestep: 1540
Li -2.10331 -2.40313 1.62431
Li -1.85332 -0.710102 -0.592511
Li 0.0545348 -0.675693 1.47819
Li -0.00200398 -2.80472 -0.298406
Li 0.895066 -0.29009 -1.17072
Li -1.05236 1.08519 -2.5325
Li -0.775203 1.66984 0.145736
7
 Atoms. Timestep: 1560
Li -2.02446 -2.44089 1.54478
Li -1.85851 -0.758456 -0.640457
Li 0.0264784 -0.61045 1.54698
Li -0.0304474 -2.85821 -0.243471
Li 0.819425 -0.294648 -1.08565
Li -1.14033 1.15421 -2.60607
Li -0.628753 1.67974 0.137986
7
 Atoms. Timestep: 1580
Li -2.16338 -2.46441 1.63313
Li -1.85874 -0.747345 -0.584787
Li 0.049892 -0.645605 1.45174
Li 0.0140437 -2.73261 -0.285567
Li 0.891509 -0.290011 -1.1989
Li -1.05773 1.06604 -2.52428
Li -0.712198 1.68524 0.162763
7
 Atoms. Timestep: 1600
Li -2.02634 -2.38582 1.57476
Li -1.85624 -0.71915 -0.616764
Li 0.0409958 -0.65813 1.52692
Li -0.029569 -2.87274 -0.276948
Li 0.86223 -0.288273 -1.11033
Li -1.09502 1.13001 -2.57994
Li -0.732649 1.66539 0.136397
7
 Atoms. Timestep: 1620
Li -2.10085 -2.48405 1.58036
Li -1.8571 -0.775686 -0.628628
Li 0.0367712 -0.601061 1.50574
Li -0.00676175 -2.78066 -0.250916
Li 0.831131 -0.300652 -1.12947
Li -1.11931 1.12229 -2.57643
Li -0.620482 1.69113 0.153442
7
 Atoms. Timestep: 1640
Li -2.12111 -2.41375 1.62655
Li -1.86004 -0.711028 -0.575774
Li 0.04385 -0.678897 1.46815
Li 0.00526603 -2.78571 -0.295233
Li 0.910542 -0.280457 -1.19457
Li -1.04846 1.06984 -2.52303
Li -0.766656 1.6713 0.148004
7
 Atoms. Timestep: 1660
Li -2.01728 -2.4208 1.55149
Li -1.85424 -0.760334 -0.643826
Li 0.0450079 -0.613078 1.54044
Li -0.0415208 -2.86682 -0.257293
Li 0.820025 -0.298594 -1.06953
Li -1.12911 1.15657 -2.61354
Li -0.659483 1.67435 0.146356
7
 Atoms. Timestep: 1680
Li -2.15522 -2.4828 1.62161
Li -1.85902 -0.744284 -0.597762
Li 0.0332291 -0.639378 1.47234
Li 0.0217866 -2.73841 -0.267931
Li 0.875958 -0.292652 -1.20032
Li -1.07735 1.07759 -2.52209
Li -0.675984 1.69123 0.148253
7
 Atoms. Timestep: 1700
Li -2.04592 -2.37914 1.58476
Li -1.86034 -0.722598 -0.59265
Li 0.0460022 -0.664399 1.5025
Li -0.0295655 -2.8543 -0.288865
Li 0.885993 -0.281559 -1.12493
Li -1.07808 1.11133 -2.57662
Li -0.754693 1.66196 0.149903
7
 Atoms. Timestep: 1720
Li -2.07841 -2.47549 1.57736
Li -1.8511 -0.771981 -0.653708
Li 0.0465178 -0.598086 1.52397
Li -0.0157799 -2.80319 -0.251311
Li 0.811381 -0.306896 -1.10619
Li -1.12509 1.13763 -2.58331
Li -0.624114 1.6893 0.147287
7
 Atoms. Timestep: 1740
Li -2.13428 -2.43257 1.6208
Li -1.86548 -0.714979 -0.561562
Li 0.0236254 -0.677679 1.46524
Li 0.0177717 -2.76897 -0.281781
Li 0.917395 -0.277764 -1.21651
Li -1.0561 1.06634 -2.51658
Li -0.739527 1.67692 0.144491
7
 Atoms. Timestep: 1760
Li -2.01932 -2.40245 1.56287
Li -1.85179 -0.75645 -0.640724
Li 0.0644499 -0.617866 1.5273
Li -0.0510752 -2.86891 -0.276338
Li 0.828944 -0.296501 -1.06001
Li -1.11291 1.14607 -2.61613
Li -0.694899 1.66741 0.157137
7
 Atoms. Timestep: 1780
Li -2.13713 -2.49002 1.61063
Li -1.85873 -0.746853 -0.617751
Li 0.0247145 -0.634495 1.49664
Li 0.0217487 -2.75163 -0.25323
Li 0.857207 -0.297522 -1.19371
Li -1.09295 1.09627 -2.52466
Li -0.651456 1.69555 0.136191
7
 Atoms. Timestep: 1800
Li -2.07108 -2.38716 1.58977
Li -1.86386 -0.722533 -0.565497
Li 0.0384544 -0.666246 1.47964
Li -0.0193084 -2.83159 -0.29141
Li 0.905965 -0.277225 -1.1456
Li -1.07135 1.09454 -2.57029
Li -0.755432 1.66152 0.157497
7
 Atoms. Timestep: 1820
Li -2.05716 -2.45657 1.58032
Li -1.84672 -0.767669 -0.676041
Li 0.0661094 -0.600527 1.53705
Li -0.0320187 -2.82462 -0.262178
Li 0.800052 -0.307344 -1.08268
Li -1.11988 1.14284 -2.58964
Li -0.646978 1.68519 0.147266
7
 Atoms. Timestep: 1840
Li -2.13956 -2.45148 1.61118
Li -1.86933 -0.723234 -0.554996
Li 0.00168394 -0.672978 1.46856
Li 0.0304062 -2.75797 -0.262577
Li 0.915263 -0.281188 -1.23234
Li -1.06939 1.07559 -2.51382
Li -0.705683 1.68256 0.138096
7
 Atoms. Timestep: 1860
Li -2.03223 -2.3943 1.57412
Li -1.85086 -0.746341 -0.62956
Li 0.0767832 -0.622349 1.51067
Li -0.0528523 -2.86399 -0.293466
Li 0.842815 -0.291091 -1.06065
Li -1.09899 1.12665 -2.61303
Li -0.721272 1.66271 0.16601
7
 Atoms. Timestep: 1880
Li -2.11043 -2.48198 1.60284
Li -1.85819 -0.75461 -0.641879
Li 0.0285166 -0.633444 1.52082
Li 0.0100933 -2.76965 -0.247356
Li 0.839708 -0.301335 -1.17761
Li -1.09984 1.1154 -2.53246
Li -0.646462 1.69693 0.129751
7
 Atoms. Timestep: 1900
Li -2.09829 -2.40731 1.59072
Li -1.86629 -0.720497 -0.541262
Li 0.0204591 -0.662618 1.46057
Li 0.000460621 -2.80905 -0.283153
Li 0.918434 -0.277255 -1.17022
Li -1.07439 1.0856 -2.56126
Li -0.736986 1.66244 0.158704
7
 Atoms. Timestep: 1920
Li -2.04155 -2.43499 1.58533
Li -1.84433 -0.761783 -0.689444
Li 0.0886185 -0.607569 1.54459
Li -0.0503009 -2.84086 -0.279712
Li 0.798082 -0.302592 -1.06291
Li -1.10895 1.13619 -2.59474
Li -0.678163 1.68291 0.150989
7
 Atoms. Timestep: 1940
Li -2.13453 -2.46213 1.60264
Li -1.87132 -0.735537 -0.559226
Li -0.0135159 -0.666765 1.47629
Li 0.0366861 -2.75475 -0.244928
Li 0.906053 -0.287866 -1.23748
Li -1.08129 1.09422 -2.51554
Li -0.678681 1.68413 0.132343
7
 Atoms. Timestep: 1960
Li -2.05537 -2.40061 1.58193
Li -1.85137 -0.732152 -0.611698
Li 0.0770446 -0.624595 1.49339
Li -0.0426585 -2.85311 -0.301871
Li 0.857882 -0.285946 -1.07367
Li -1.0923 1.10528 -2.60412
Li -0.729828 1.66243 0.170135
7
 Atoms. Timestep: 1980
Li -2.07905 -2.46101 1.5982
Li -1.85707 -0.764721 -0.664722
Li 0.0437121 -0.637103 1.54171
Li -0.0126148 -2.78889 -0.252734
Li 0.826431 -0.301686 -1.15288
Li -1.09786 1.12822 -2.54474
Li -0.660145 1.69649 0.129268
7
 Atoms. Timestep: 2000
Li -2.12258 -2.43198 1.59101
Li -1.8678 -0.71883 -0.52607
Li -0.00162101 -0.654443 1.4465
Li 0.0246804 -2.79086 -0.267314
Li 0.922676 -0.281702 -1.19457
Li -1.08274 1.08765 -2.55107
Li -0.709213 1.66147 0.155617
7
 Atoms. Timestep: 2020
Li -2.03553 -2.41946 1.58781
Li -1.84388 -0.754082 -0.689979
Li 0.106077 -0.617132 1.54693
Li -0.0636375 -2.84918 -0.296766
Li 0.80378 -0.295147 -1.05164
Li -1.09902 1.12011 -2.59727
Li -0.704397 1.6862 0.15501
7
 Atoms. Timestep: 2040
Li -2.11892 -2.45975 1.59862
Li -1.87121 -0.749568 -0.573705
Li -0.0163326 -0.660986 1.48649
Li 0.0317138 -2.75953 -0.236099
Li 0.892796 -0.294116 -1.22872
Li -1.08674 1.11564 -2.52225
Li -0.667903 1.67961 0.129763
7
 Atoms. Timestep: 2060
Li -2.08535 -2.41959 1.58599
Li -1.85338 -0.717919 -0.591281
Li 0.0648922 -0.62421 1.47734
Li -0.020491 -2.83843 -0.297969
Li 0.871493 -0.28401 -1.09875
Li -1.09359 1.0894 -2.59041
Li -0.720184 1.66607 0.169171
7
 Atoms. Timestep: 2080
Li -2.04877 -2.43468 1.59413
Li -1.855 -0.77327 -0.68044
Li 0.0651137 -0.644325 1.55737
Li -0.0412724 -2.8059 -0.267057
Li 0.818208 -0.297995 -1.1231
Li -1.09101 1.13047 -2.55937
Li -0.683865 1.697 0.132574
7
 Atoms. Timestep: 2100
Li -2.13898 -2.452 1.59467
Li -1.86886 -0.71927 -0.523764
Li -0.0199387 -0.644047 1.438
Li 0.045866 -2.77992 -0.250789
Li 0.920455 -0.288703 -1.21337
Li -1.09015 1.0997 -2.54222
Li -0.684996 1.65554 0.151578
7
 Atoms. Timestep: 2120
Li -2.04094 -2.41583 1.58497
Li -1.84487 -0.745638 -0.677669
Li 0.112259 -0.627098 1.54464
Li -0.0661408 -2.84868 -0.305607
Li 0.814096 -0.288338 -1.05311
Li -1.09515 1.10039 -2.59571
Li -0.715853 1.69651 0.156586
7
 Atoms. Timestep: 2140
Li -2.09516 -2.44518 1.59928
Li -1.86911 -0.761608 -0.594403
Li -0.00562212 -0.656412 1.49781
Li 0.0144709 -2.77097 -0.240324
Li 0.878423 -0.296953 -1.20553
Li -1.08479 1.13244 -2.53367
Li -0.674814 1.66998 0.13094
7
 Atoms. Timestep: 2160
Li -2.11649 -2.44426 1.58897
Li -1.85669 -0.708016 -0.57356
Li 0.044243 -0.6226 1.46329
Li 0.00899208 -2.82244 -0.283156
Li 0.882604 -0.28643 -1.13245
Li -1.09929 1.08416 -2.57404
Li -0.699963 1.67089 0.165044
7
 Atoms. Timestep: 2180
Li -2.02566 -2.41252 1.58713
Li -1.8518 -0.777069 -0.685276
Li 0.0854305 -0.652441 1.56727
Li -0.0679403 -2.81824 -0.283922
Li 0.81411 -0.29154 -1.09431
Li -1.08537 1.12192 -2.5732
Li -0.705372 1.70119 0.136409
7
 Atoms. Timestep: 2200
Li -2.14394 -2.46046 1.60394
Li -1.87016 -0.722135 -0.534409
Li -0.0280425 -0.633967 1.43541
Li 0.0569516 -2.77728 -0.241509
Li 0.914718 -0.295448 -1.22145
Li -1.09165 1.11695 -2.53736
Li -0.674474 1.64363 0.149481
7
 Atoms. Timestep: 2220
Li -2.05673 -2.42477 1.57742
Li -1.84634 -0.738721 -0.656337
Li 0.1046 -0.636328 1.53798
Li -0.0555232 -2.84019 -0.301255
Li 0.82601 -0.284885 -1.06946
Li -1.09845 1.08405 -2.58914
Li -0.710169 1.71215 0.15488
7
 Atoms. Timestep: 2240
Li -2.06801 -2.42433 1.60149
Li -1.86565 -0.767971 -0.615672
Li 0.0152643 -0.65225 1.5098
Li -0.0114345 -2.78673 -0.256768
Li 0.864901 -0.295183 -1.17079
Li -1.07888 1.1391 -2.54849
Li -0.692796 1.65867 0.134532
7
 Atoms. Timestep: 2260
Li -2.14226 -2.46539 1.59473
Li -1.86106 -0.705538 -0.562785
Li 0.0217524 -0.622109 1.4515
Li 0.037852 -2.80733 -0.263597
Li 0.89154 -0.292336 -1.16849
Li -1.10344 1.09049 -2.55799
Li -0.680984 1.67351 0.160737
7
 Atoms. Timestep: 2280
Li -2.01446 -2.40216 1.5751
Li -1.8473 -0.774992 -0.678982
Li 0.0978759 -0.658535 1.57156
Li -0.0846873 -2.825 -0.29532
Li 0.812317 -0.28466 -1.07358
Li -1.08602 1.10651 -2.58282
Li -0.714325 1.71013 0.138141
7
 Atoms. Timestep: 2300
Li -2.13647 -2.45529 1.61763
Li -1.87242 -0.726296 -0.554342
Li -0.0231828 -0.6259 1.4392
Li 0.0540023 -2.78212 -0.245051
Li 0.908256 -0.299526 -1.21529
Li -1.08603 1.13277 -2.53853
Li -0.680756 1.62767 0.150488
7
 Atoms. Timestep: 2320
Li -2.07916 -2.44171 1.56911
Li -1.84737 -0.7359 -0.631994
Li 0.0852474 -0.644721 1.52682
Li -0.0342115 -2.82591 -0.283933
Li 0.837482 -0.285858 -1.09937
Li -1.1055 1.07659 -2.57766
Li -0.69309 1.7288 0.151127
7
 Atoms. Timestep: 2340
Li -2.04347 -2.40566 1.60051
Li -1.86135 -0.766519 -0.632381
Li 0.0397161 -0.646911 1.5224
Li -0.038859 -2.80421 -0.279437
Li 0.852939 -0.289657 -1.13073
Li -1.07509 1.13424 -2.56439
Li -0.710484 1.65002 0.138122
7
 Atoms. Timestep: 2360
Li -2.15693 -2.47518 1.60588
Li -1.86663 -0.711179 -0.560796
Li 0.00443832 -0.624547 1.44272
Li 0.0576915 -2.79465 -0.2479
Li 0.899344 -0.299511 -1.19914
Li -1.10076 1.10489 -2.54546
Li -0.67376 1.67148 0.158792
7
 Atoms. Timestep: 2380
Li -2.01735 -2.40646 1.55906
Li -1.84128 -0.768251 -0.664571
Li 0.0987566 -0.660718 1.57009
Li -0.0865644 -2.82676 -0.295069
Li 0.811078 -0.279654 -1.06672
Li -1.09435 1.09061 -2.58562
Li -0.706888 1.72254 0.136931
7
 Atoms. Timestep: 2400
Li -2.1185 -2.43984 1.63116
Li -1.87588 -0.729864 -0.577526
Li -0.00741074 -0.620397 1.44984
Li 0.0378264 -2.79212 -0.261895
Li 0.90281 -0.29994 -1.19463
Li -1.07663 1.14148 -2.54651
Li -0.698825 1.61199 0.153666
7
 Atoms. Timestep: 2420
Li -2.10277 -2.45898 1.5656
Li -1.84792 -0.73869 -0.610798
Li 0.0604889 -0.652523 1.51124
Li -0.0085763 -2.80877 -0.259419
Li 0.847715 -0.290384 -1.13762
Li -1.11003 1.07975 -2.56269
Li -0.675515 1.74089 0.147788
7
 Atoms. Timestep: 2440
Li -2.02716 -2.3967 1.59244
Li -1.85615 -0.757653 -0.64135
Li 0.0603804 -0.639269 1.53501
Li -0.059743 -2.82118 -0.299318
Li 0.842316 -0.282731 -1.09355
Li -1.07905 1.12108 -2.57864
Li -0.71719 1.64775 0.139504
7
 Atoms. Timestep: 2460
Li -2.15735 -2.47036 1.62207
Li -1.87378 -0.722851 -0.566609
Li -0.00315911 -0.630303 1.43851
Li 0.0628956 -2.78494 -0.243472
Li 0.906944 -0.305479 -1.21749
Li -1.08953 1.12092 -2.53902
Li -0.682629 1.66432 0.160109
7
 Atoms. Timestep: 2480
Li -2.03308 -2.42259 1.54333
Li -1.83403 -0.759701 -0.647005
Li 0.0890246 -0.658667 1.56213
Li -0.0735689 -2.82522 -0.281753
Li 0.809516 -0.277801 -1.07597
Li -1.10708 1.08032 -2.58059
Li -0.687379 1.73496 0.133962
7
 Atoms. Timestep: 2500
Li -2.09473 -2.42127 1.63819
Li -1.87975 -0.731111 -0.597578
Li 0.013413 -0.617199 1.46709
Li 0.0138049 -2.8044 -0.286644
Li 0.898716 -0.297455 -1.16318
Li -1.06995 1.14076 -2.56041
Li -0.718113 1.60197 0.156621
7
 Atoms. Timestep: 2520
Li -2.12186 -2.46917 1.57168
Li -1.84899 -0.746517 -0.597234
Li 0.0380428 -0.659831 1.49246
Li 0.0134875 -2.79143 -0.236983
Li 0.856871 -0.296074 -1.17631
Li -1.10596 1.0908 -2.54662
Li -0.668181 1.74352 0.14711
7
 Atoms. Timestep: 2540
Li -2.02259 -2.40084 1.57626
Li -1.84976 -0.744424 -0.642064
Li 0.0722674 -0.629292 1.54591
Li -0.0682488 -2.83646 -0.308106
Li 0.832602 -0.277212 -1.06703
Li -1.09288 1.10603 -2.58881
Li -0.70799 1.6535 0.137948
7
 Atoms. Timestep: 2560
Li -2.14421 -2.45349 1.63963
Li -1.88208 -0.736194 -0.576851
Li -0.000833744 -0.638627 1.44057
Li 0.0529014 -2.7778 -0.253053
Li 0.914395 -0.308598 -1.2197
Li -1.07294 1.13203 -2.53987
Li -0.703831 1.65398 0.163373
7
 Atoms. Timestep: 2580
Li -2.05717 -2.44336 1.53412
Li -1.82692 -0.752698 -0.631534
Li 0.073616 -0.653402 1.54722
Li -0.0507015 -2.82216 -0.259766
Li 0.808055 -0.278765 -1.099
Li -1.11744 1.07887 -2.56876
Li -0.66604 1.74281 0.131822
7
 Atoms. Timestep: 2600
Li -2.07125 -2.40739 1.63317
Li -1.88237 -0.729263 -0.609931
Li 0.032445 -0.615577 1.48923
Li -0.0101714 -2.8168 -0.309905
Li 0.895012 -0.29423 -1.1276
Li -1.07261 1.13257 -2.5777
Li -0.727646 1.60199 0.156841
7
 Atoms. Timestep: 2620
Li -2.13235 -2.46839 1.58904
Li -1.8518 -0.756586 -0.59279
Li 0.0235647 -0.666706 1.47326
Li 0.0256646 -2.77537 -0.225582
Li 0.865496 -0.300056 -1.20734
Li -1.09066 1.10378 -2.53223
Li -0.676515 1.73463 0.149743
7
 Atoms. Timestep: 2640
Li -2.02986 -2.41595 1.55497
Li -1.84247 -0.731684 -0.636734
Li 0.0745997 -0.61789 1.55253
Li -0.0630429 -2.84986 -0.301942
Li 0.823895 -0.275122 -1.05606
Li -1.11374 1.09591 -2.59357
Li -0.68598 1.6659 0.134904
7
 Atoms. Timestep: 2660
Li -2.12185 -2.43175 1.65254
Li -1.88981 -0.746038 -0.587146
Li 0.00772518 -0.648222 1.44986
Li 0.0323834 -2.77259 -0.2732
Li 0.920451 -0.30875 -1.20614
Li -1.058 1.13429 -2.54727
Li -0.727495 1.64435 0.165455
7
 Atoms. Timestep: 2680
Li -2.08336 -2.46057 1.53719
Li -1.82227 -0.74983 -0.621891
Li 0.0588415 -0.64683 1.5262
Li -0.0259573 -2.81838 -0.237684
Li 0.808395 -0.280721 -1.12997
Li -1.11826 1.08539 -2.55301
Li -0.653979 1.74224 0.133267
7
 Atoms. Timestep: 2700
Li -2.05336 -2.40315 1.61403
Li -1.88185 -0.725021 -0.613521
Li 0.044793 -0.614547 1.51305
Li -0.02689 -2.82871 -0.322298
Li 0.88995 -0.292783 -1.09542
Li -1.088 1.1221 -2.59489
Li -0.721247 1.61341 0.153151
7
 Atoms. Timestep: 2720
Li -2.1331 -2.4579 1.61483
Li -1.85678 -0.764781 -0.595592
Li 0.0185859 -0.673224 1.45746
Li 0.0256754 -2.76088 -0.229937
Li 0.873891 -0.300306 -1.22492
Li -1.06668 1.1121 -2.52188
Li -0.698193 1.71629 0.154133
7
 Atoms. Timestep: 2740
Li -2.0458 -2.43546 1.53514