# LAMMPS data file for 8 Li atoms

8 atoms
1 atom types

0.0 16.8552 xlo xhi
0.0 16.8552 ylo yhi
0.0 16.8552 zlo zhi

Masses

1 6.94

Atoms

1 1 3.286200 2.429300 7.141300
2 1 1.572400 4.143100 5.427500
3 1 5.000000 4.143100 5.427500
4 1 5.000000 0.717400 5.427500
5 1 6.713800 5.856900 3.715600
6 1 8.427600 7.570700 5.427500
7 1 5.000000 7.570700 5.427500
8 1 5.000000 7.570700 2.001800
