3
 Atoms. Timestep: 50
Li -1.19991 -0.974208 -9.88832e-18
Li 1.55965 -1.02747 -9.8404e-18
Li 0.13372 1.41816 1.86532e-20
3
 Atoms. Timestep: 100
Li -0.705671 -0.560252 -1.82219e-17
Li 2.08557 -0.552062 -1.76798e-17
Li 0.696792 1.86504 3.29939e-19
3
 Atoms. Timestep: 150
Li -0.0132444 0.0250118 -2.04827e-17
Li 2.79795 0.0778173 -1.98006e-17
Li 1.43773 2.4609 8.68772e-19
3
 Atoms. Timestep: 200
Li 0.691442 0.620881 -1.56499e-17
Li 3.45892 0.594525 -1.59667e-17
Li 2.05224 3.01959 1.65426e-18
3
 Atoms. Timestep: 250
Li 1.06914 0.942599 -5.96847e-18
Li 3.85505 0.898203 -6.89256e-18
Li 2.42369 3.36082 2.40032e-18
3
 Atoms. Timestep: 300
Li 1.01868 0.893895 5.44803e-18
Li 3.81147 0.929138 4.58967e-18
Li 2.44562 3.31772 2.42744e-18
3
 Atoms. Timestep: 350
Li 0.60383 0.54594 1.4965e-17
Li 3.39376 0.569353 1.46455e-17
Li 2.01921 2.96289 1.46393e-18
3
 Atoms. Timestep: 400
Li -0.0440835 0.00526269 1.94704e-17
Li 2.74231 -0.0470829 1.99733e-17
Li 1.3041 2.41978 -3.28249e-19
3
 Atoms. Timestep: 450
Li -0.741175 -0.591104 1.78696e-17
Li 2.02794 -0.605415 1.82342e-17
Li 0.631167 1.81526 -2.16009e-18
3
 Atoms. Timestep: 500
Li -1.26309 -1.03031 1.06709e-17
Li 1.5446 -0.977446 1.05452e-17
Li 0.18648 1.40274 -3.80328e-18
3
 Atoms. Timestep: 550
Li -1.3502 -1.10008 -1.38454e-19
Li 1.44385 -1.10648 -6.57894e-20
Li 0.0412355 1.32039 -4.59997e-18
3
 Atoms. Timestep: 600
Li -1.02556 -0.828157 -1.08338e-17
Li 1.73321 -0.876536 -1.04638e-17
Li 0.311877 1.56517 -3.88683e-18
3
 Atoms. Timestep: 650
Li -0.473866 -0.363234 -1.79842e-17
Li 2.33431 -0.338481 -1.71932e-17
Li 0.951441 2.07494 -1.71745e-18
3
 Atoms. Timestep: 700
Li 0.225565 0.225287 -1.89385e-17
Li 3.01715 0.264995 -1.83839e-17
Li 1.65553 2.64383 1.23395e-18
3
 Atoms. Timestep: 750
Li 0.815626 0.72816 -1.35529e-17
Li 3.58997 0.686231 -1.40807e-17
Li 2.1665 3.13246 4.44181e-18
3
 Atoms. Timestep: 800
Li 1.03979 0.916602 -4.15342e-18
Li 3.82856 0.886177 -5.03807e-18
Li 2.4079 3.33838 6.48699e-18
3
 Atoms. Timestep: 850
Li 0.857901 0.757043 6.31479e-18
Li 3.64227 0.801005 5.68524e-18
Li 2.28816 3.1713 6.39425e-18
3
 Atoms. Timestep: 900
Li 0.360073 0.343669 1.45068e-17
Li 3.16257 0.349563 1.43581e-17
Li 1.76653 2.77084 4.1574e-18
3
 Atoms. Timestep: 950
Li -0.2719 -0.18951 1.77892e-17
Li 2.4993 -0.240289 1.8114e-17
Li 1.06992 2.21274 4.62156e-19
3
 Atoms. Timestep: 1000
Li -0.895867 -0.721829 1.55804e-17
Li 1.88451 -0.713779 1.55659e-17
Li 0.501333 1.69315 -3.66624e-18
3
 Atoms. Timestep: 1050
Li -1.26389 -1.0292 8.40551e-18
Li 1.55049 -0.982065 8.17534e-18
Li 0.184038 1.40848 -7.02491e-18
3
 Atoms. Timestep: 1100
Li -1.19017 -0.966516 -1.59277e-18
Li 1.58161 -0.99005 -1.34647e-18
Li 0.175334 1.43493 -8.30711e-18
3
 Atoms. Timestep: 1150
Li -0.80316 -0.639225 -1.07942e-17
Li 1.97517 -0.675673 -1.01759e-17
Li 0.55443 1.77201 -6.9477e-18
3
 Atoms. Timestep: 1200
Li -0.230764 -0.158839 -1.62488e-17
Li 2.57235 -0.124136 -1.54279e-17
Li 1.20073 2.27269 -3.27381e-18
3
 Atoms. Timestep: 1250
Li 0.400704 0.373866 -1.61197e-17
Li 3.18341 0.393974 -1.57998e-17
Li 1.8094 2.78429 1.7552e-18
3
 Atoms. Timestep: 1300
Li 0.84059 0.751172 -1.07592e-17
Li 3.62579 0.704248 -1.13333e-17
Li 2.19261 3.16477 6.70327e-18
3
 Atoms. Timestep: 1350
Li 0.922946 0.814883 -2.29177e-18
Li 3.7015 0.80368 -2.95344e-18
Li 2.30254 3.22781 9.48242e-18
3
 Atoms. Timestep: 1400
Li 0.632114 0.56858 6.58922e-18
Li 3.42728 0.613 6.21171e-18
Li 2.06812 2.99004 9.26435e-18
3
 Atoms. Timestep: 1450
Li 0.119488 0.141548 1.30889e-17
Li 2.91825 0.132086 1.29844e-17
Li 1.51071 2.56526 6.09961e-18
3
 Atoms. Timestep: 1500
Li -0.45768 -0.348901 1.52066e-17
Li 2.30376 -0.390254 1.52533e-17
Li 0.88731 2.04614 8.68329e-19
3
 Atoms. Timestep: 1550
Li -0.975756 -0.787235 1.2632e-17
Li 1.82486 -0.763025 1.23368e-17
Li 0.445504 1.6429 -4.93788e-18
3
 Atoms. Timestep: 1600
Li -1.17435 -0.954172 5.88849e-18
Li 1.62554 -0.92094 5.69124e-18
Li 0.254348 1.47059 -9.31213e-18
3
 Atoms. Timestep: 1650
Li -0.991834 -0.798538 -2.71773e-18
Li 1.77626 -0.83409 -2.30382e-18
Li 0.361488 1.59978 -1.08823e-17
3
 Atoms. Timestep: 1700
Li -0.573639 -0.445076 -1.00511e-17
Li 2.2185 -0.466571 -9.34525e-18
Li 0.80385 1.97836 -9.01339e-18
3
 Atoms. Timestep: 1750
Li -0.0182596 0.0189908 -1.38619e-17
Li 2.77061 0.0576046 -1.3164e-17
Li 1.40956 2.43606 -4.15218e-18
3
 Atoms. Timestep: 1800
Li 0.505482 0.465285 -1.29809e-17
Li 3.29657 0.466847 -1.28551e-17
Li 1.90236 2.88239 2.36723e-18
3
 Atoms. Timestep: 1850
Li 0.809971 0.724239 -7.92855e-18
Li 3.59089 0.680732 -8.41159e-18
Li 2.16278 3.13474 8.27911e-18
3
 Atoms. Timestep: 1900
Li 0.763992 0.679236 -6.87764e-19
Li 3.54156 0.687714 -1.07162e-18
Li 2.16007 3.09003 1.15133e-17
3
 Atoms. Timestep: 1950
Li 0.405411 0.37994 6.49398e-18
Li 3.21344 0.417457 6.2868e-18
Li 1.84183 2.81141 1.12037e-17
3
 Atoms. Timestep: 2000
Li -0.0831065 -0.0309362 1.14023e-17
Li 2.69658 -0.0532461 1.12434e-17
Li 1.28742 2.37653 7.29291e-18
3
 Atoms. Timestep: 2050
Li -0.605593 -0.473738 1.25459e-17
Li 2.16705 -0.501626 1.23288e-17
Li 0.756612 1.93182 8.948e-19
3
 Atoms. Timestep: 2100
Li -0.998437 -0.805664 9.70757e-18
Li 1.80784 -0.772997 9.26882e-18
Li 0.432987 1.62724 -5.92588e-18
3
 Atoms. Timestep: 2150
Li -1.05456 -0.853643 3.61153e-18
Li 1.72873 -0.838205 3.5208e-18
Li 0.350493 1.55666 -1.09498e-17
3
 Atoms. Timestep: 2200
Li -0.804109 -0.638227 -3.47183e-18
Li 1.97583 -0.678093 -2.95978e-18
Li 0.551443 1.77067 -1.2697e-17
3
 Atoms. Timestep: 2250
Li -0.362598 -0.268828 -9.06811e-18
Li 2.42541 -0.274422 -8.39874e-18
Li 1.02661 2.15072 -1.0322e-17
3
 Atoms. Timestep: 2300
Li 0.147037 0.159119 -1.15124e-17
Li 2.93525 0.19594 -1.09802e-17
Li 1.573 2.574 -4.51187e-18
3
 Atoms. Timestep: 2350
Li 0.569842 0.521655 -1.00778e-17
Li 3.36613 0.508986 -1.00497e-17
Li 1.95699 2.94302 2.93925e-18
3
 Atoms. Timestep: 2400
Li 0.756485 0.676376 -5.44819e-18
Li 3.52568 0.641802 -5.76582e-18
Li 2.11111 3.07775 9.44493e-18
3
 Atoms. Timestep: 2450
Li 0.597078 0.539643 5.5861e-19
Li 3.38965 0.563042 4.18329e-19
Li 2.01353 2.96154 1.3032e-17
3
 Atoms. Timestep: 2500
Li 0.21034 0.215829 6.23204e-18
Li 3.01392 0.241739 6.10261e-18
Li 1.63448 2.64321 1.25268e-17
3
 Atoms. Timestep: 2550
Li -0.254104 -0.176205 9.76358e-18
Li 2.51363 -0.207688 9.49758e-18
Li 1.1025 2.22145 7.96336e-18
3
 Atoms. Timestep: 2600
Li -0.718785 -0.568237 1.00444e-17
Li 2.07149 -0.582014 9.63329e-18
Li 0.664452 1.85273 7.51296e-19
3
 Atoms. Timestep: 2650
Li -0.983489 -0.794202 7.04017e-18
Li 1.81169 -0.75912 6.56635e-18
Li 0.444504 1.62748 -6.72096e-18
3
 Atoms. Timestep: 2700
Li -0.93454 -0.750768 1.72182e-18
Li 1.84852 -0.752737 1.75109e-18
Li 0.455363 1.65923 -1.22465e-17
3
 Atoms. Timestep: 2750
Li -0.62739 -0.488866 -3.92132e-18
Li 2.15756 -0.526292 -3.39136e-18
Li 0.732784 1.92509 -1.39635e-17
3
 Atoms. Timestep: 2800
Li -0.178832 -0.115817 -7.97582e-18
Li 2.6017 -0.105577 -7.41733e-18
Li 1.22034 2.29626 -1.10824e-17
3
 Atoms. Timestep: 2850
Li 0.271526 0.266674 -9.25703e-18
Li 3.07151 0.2966 -8.87282e-18
Li 1.6974 2.69086 -4.59695e-18
3
 Atoms. Timestep: 2900
Li 0.609242 0.554288 -7.42049e-18
Li 3.39455 0.53123 -7.40333e-18
Li 1.9819 2.96641 3.41376e-18
3
 Atoms. Timestep: 2950
Li 0.677004 0.608091 -3.33764e-18
Li 3.4478 0.586355 -3.45041e-18
Li 2.04352 3.01162 1.0366e-17
3
 Atoms. Timestep: 3000
Li 0.434361 0.403821 1.5152e-18
Li 3.23925 0.435133 1.55586e-18
Li 1.86381 2.83463 1.40961e-17
3
 Atoms. Timestep: 3050
Li 0.0418013 0.0726581 5.82289e-18
Li 2.82871 0.083591 5.69542e-18
Li 1.44466 2.48576 1.3303e-17
3
 Atoms. Timestep: 3100
Li -0.404185 -0.301866 8.08449e-18
Li 2.37055 -0.336681 7.70232e-18
Li 0.953048 2.10253 8.26356e-18
3
 Atoms. Timestep: 3150
Li -0.789985 -0.628925 7.59665e-18
Li 2.00396 -0.629035 7.08012e-18
Li 0.606923 1.7948 5.47896e-19
3
 Atoms. Timestep: 3200
Li -0.941159 -0.758937 4.60718e-18
Li 1.84549 -0.727103 4.18046e-18
Li 0.479771 1.65422 -7.37557e-18
3
 Atoms. Timestep: 3250
Li -0.808847 -0.642396 1.64075e-19
Li 1.98212 -0.657857 2.81029e-19
Li 0.573335 1.77439 -1.31373e-17
3
 Atoms. Timestep: 3300
Li -0.454537 -0.345078 -4.10117e-18
Li 2.32238 -0.374359 -3.63179e-18
Li 0.908646 2.06279 -1.46241e-17
3
 Atoms. Timestep: 3350
Li -0.0270575 0.0125549 -6.7174e-18
Li 2.76018 0.0355097 -6.30749e-18
Li 1.38645 2.42885 -1.1373e-17
3
 Atoms. Timestep: 3400
Li 0.366433 0.348245 -7.00313e-18
Li 3.16973 0.367529 -6.72284e-18
Li 1.78476 2.77509 -4.50352e-18
3
 Atoms. Timestep: 3450
Li 0.616281 0.558632 -4.9615e-18
Li 3.38694 0.529201 -4.88492e-18
Li 1.9761 2.95871 3.81561e-18
3
 Atoms. Timestep: 3500
Li 0.569411 0.518127 -1.51785e-18
Li 3.35598 0.510338 -1.42652e-18
Li 1.95589 2.93533 1.09727e-17
3
 Atoms. Timestep: 3550
Li 0.280494 0.273647 2.24307e-18
Li 3.08057 0.306101 2.39042e-18
Li 1.70855 2.69901 1.45778e-17
3
 Atoms. Timestep: 3600
Li -0.112819 -0.0575359 5.2165e-18
Li 2.66618 -0.062295 5.0398e-18
Li 1.27252 2.34887 1.3549e-17
3
 Atoms. Timestep: 3650
Li -0.525654 -0.403519 6.2897e-18
Li 2.25949 -0.435374 5.8275e-18
Li 0.839351 2.01066 8.23778e-18
3
 Atoms. Timestep: 3700
Li -0.819245 -0.655512 5.19605e-18
Li 1.96664 -0.642866 4.66363e-18
Li 0.584672 1.76024 2.66258e-19
3
 Atoms. Timestep: 3750
Li -0.876918 -0.702956 2.40763e-18
Li 1.91587 -0.679198 2.07109e-18
Li 0.540086 1.71486 -7.83902e-18
3
 Atoms. Timestep: 3800
Li -0.668399 -0.523573 -1.10815e-18
Li 2.11963 -0.547572 -9.59978e-19
Li 0.704908 1.89093 -1.3472e-17
3
 Atoms. Timestep: 3850
Li -0.294675 -0.212061 -4.00065e-18
Li 2.47779 -0.22883 -3.65724e-18
Li 1.07709 2.1925 -1.46894e-17
3
 Atoms. Timestep: 3900
Li 0.0957242 0.117919 -5.29581e-18
Li 2.89649 0.147262 -5.03342e-18
Li 1.52152 2.54441 -1.12402e-17
3
 Atoms. Timestep: 3950
Li 0.434207 0.404884 -4.791e-18
Li 3.22493 0.41106 -4.56028e-18
Li 1.8349 2.82102 -4.21893e-18
3
 Atoms. Timestep: 4000
Li 0.58171 0.529403 -2.72547e-18
Li 3.35327 0.498913 -2.54476e-18
Li 1.94107 2.93107 4.13888e-18
3
 Atoms. Timestep: 4050
Li 0.447172 0.415338 6.14905e-20
Li 3.24342 0.420074 3.12601e-19
Li 1.84934 2.84029 1.11432e-17
3
 Atoms. Timestep: 4100
Li 0.133898 0.14907 2.73251e-18
Li 2.92226 0.176682 2.90888e-18
Li 1.55193 2.56347 1.4492e-17
3
 Atoms. Timestep: 4150
Li -0.253865 -0.174717 4.40062e-18
Li 2.53114 -0.19175 4.16461e-18
Li 1.12387 2.23703 1.33164e-17
3
 Atoms. Timestep: 4200
Li -0.608811 -0.474922 4.43635e-18
Li 2.1744 -0.498623 3.95666e-18
Li 0.762274 1.93826 7.87658e-18
3
 Atoms. Timestep: 4250
Li -0.816862 -0.654025 2.92442e-18
Li 1.96819 -0.631599 2.44587e-18
Li 0.595086 1.75959 -8.83005e-20
3
 Atoms. Timestep: 4300
Li -0.788766 -0.626595 4.63227e-19
Li 2.01109 -0.613538 2.14345e-19
Li 0.622496 1.79716 -8.00088e-18
3
 Atoms. Timestep: 4350
Li -0.519425 -0.399423 -2.07638e-18
Li 2.25584 -0.427134 -1.95806e-18
Li 0.844269 2.00466 -1.32653e-17
3
 Atoms. Timestep: 4400
Li -0.157845 -0.0963256 -3.63211e-18
Li 2.62528 -0.0994283 -3.44788e-18
Li 1.23107 2.31729 -1.42587e-17
3
 Atoms. Timestep: 4450
Li 0.196529 0.203558 -3.80574e-18
Li 2.99868 0.232591 -3.65949e-18
Li 1.62275 2.63021 -1.07023e-17
3
 Atoms. Timestep: 4500
Li 0.467419 0.432381 -2.71172e-18
Li 3.2458 0.425107 -2.47971e-18
Li 1.85031 2.83813 -3.76004e-18
3
 Atoms. Timestep: 4550
Li 0.512783 0.472166 -7.31587e-19
Li 3.29606 0.44596 -4.43585e-19
Li 1.88172 2.88471 4.30966e-18
3
 Atoms. Timestep: 4600
Li 0.321822 0.308315 1.38469e-18
Li 3.11308 0.323223 1.72695e-18
Li 1.73032 2.72791 1.08886e-17
3
 Atoms. Timestep: 4650
Li -0.00825042 0.0299829 2.95703e-18
Li 2.77946 0.0483934 3.10426e-18
Li 1.4015 2.4434 1.39596e-17
3
 Atoms. Timestep: 4700
Li -0.369654 -0.271525 3.44006e-18
Li 2.41843 -0.295401 3.17118e-18
Li 1.00369 2.1432 1.26341e-17
3
 Atoms. Timestep: 4750
Li -0.657528 -0.518072 2.62164e-18
Li 2.11911 -0.529979 2.18719e-18
Li 0.720464 1.8897 7.22115e-18
3
 Atoms. Timestep: 4800
Li -0.788981 -0.629024 8.53214e-19
Li 2.00673 -0.602355 4.63943e-19
Li 0.631953 1.79252 -4.31221e-19
3
 Atoms. Timestep: 4850
Li -0.677242 -0.532404 -1.18096e-18
Li 2.11578 -0.530917 -1.3727e-18
Li 0.720576 1.88561 -7.84299e-18
3
 Atoms. Timestep: 4900
Li -0.378795 -0.281659 -2.70976e-18
Li 2.39238 -0.308111 -2.67262e-18
Li 0.983932 2.11967 -1.26527e-17
3
 Atoms. Timestep: 4950
Li -0.0414513 0.00280078 -3.07681e-18
Li 2.75415 0.0111747 -3.04534e-18
Li 1.36364 2.42645 -1.33978e-17
3
 Atoms. Timestep: 5000
Li 0.274434 0.268575 -2.3478e-18
Li 3.06571 0.291748 -2.26935e-18
Li 1.69016 2.68526 -9.82352e-18
3
 Atoms. Timestep: 5050
Li 0.462131 0.428989 -8.1969e-19
Li 3.2423 0.411333 -5.55629e-19
Li 1.83695 2.8366 -3.21929e-18
3
 Atoms. Timestep: 5100
Li 0.42647 0.398947 9.94765e-19
Li 3.21366 0.380963 1.35639e-18
Li 1.8045 2.81536 4.29914e-18
3
 Atoms. Timestep: 5150
Li 0.194663 0.200045 2.4075e-18
Li 2.98028 0.221733 2.77229e-18
Li 1.60622 2.61352 1.03267e-17
3
 Atoms. Timestep: 5200
Li -0.139149 -0.0785422 2.94417e-18
Li 2.65568 -0.0708875 3.04207e-18
Li 1.26486 2.34092 1.30531e-17
3
 Atoms. Timestep: 5250
Li -0.454082 -0.34393 2.41584e-18
Li 2.32576 -0.369463 2.15632e-18
Li 0.913702 2.06426 1.15677e-17
3
 Atoms. Timestep: 5300
Li -0.681811 -0.53897 9.10932e-19
Li 2.09946 -0.538248 5.66306e-19
Li 0.709421 1.87247 6.39534e-18
3
 Atoms. Timestep: 5350
Li -0.733847 -0.581313 -9.58391e-19
Li 2.06757 -0.556279 -1.2563e-18
Li 0.688517 1.84436 -6.99845e-19
3
 Atoms. Timestep: 5400
Li -0.554531 -0.429721 -2.47527e-18
Li 2.22539 -0.439208 -2.64963e-18
Li 0.827228 1.97731 -7.44634e-18
3
 Atoms. Timestep: 5450
Li -0.255483 -0.177 -3.0397e-18
Li 2.52544 -0.197874 -3.10938e-18
Li 1.11694 2.23342 -1.17283e-17
3
 Atoms. Timestep: 5500
Li 0.0593117 0.0873931 -2.42696e-18
Li 2.8544 0.10381 -2.51279e-18
Li 1.47111 2.50958 -1.21757e-17
3
 Atoms. Timestep: 5550
Li 0.322003 0.308846 -9.71257e-19
Li 3.1072 0.322455 -9.11931e-19
Li 1.72642 2.72004 -8.74441e-18
3
 Atoms. Timestep: 5600
Li 0.428141 0.401457 8.5147e-19
Li 3.2145 0.3786 1.14844e-18
Li 1.80156 2.81484 -2.67058e-18
3
 Atoms. Timestep: 5650
Li 0.331531 0.317103 2.41513e-18
Li 3.11317 0.309796 2.80214e-18
Li 1.71602 2.72875 4.15227e-18
3
 Atoms. Timestep: 5700
Li 0.0669447 0.093192 3.12567e-18
Li 2.85828 0.116863 3.4634e-18
Li 1.48308 2.51055 9.53835e-18
3
 Atoms. Timestep: 5750
Li -0.247322 -0.169171 2.75371e-18
Li 2.54603 -0.171763 2.81257e-18
Li 1.14707 2.24917 1.18174e-17
3
 Atoms. Timestep: 5800
Li -0.513709 -0.395658 1.37043e-18
Li 2.25937 -0.418226 1.16304e-18
Li 0.853254 2.00737 1.02615e-17
3
 Atoms. Timestep: 5850
Li -0.683139 -0.539125 -6.42994e-19
Li 2.1102 -0.528217 -8.79412e-19
Li 0.722938 1.88194 5.50513e-18
3
 Atoms. Timestep: 5900
Li -0.654368 -0.514563 -2.45772e-18
Li 2.13944 -0.495829 -2.68443e-18
Li 0.758739 1.90417 -8.97699e-19
3
 Atoms. Timestep: 5950
Li -0.436474 -0.329847 -3.41595e-18
Li 2.34082 -0.34746 -3.6085e-18
Li 0.936936 2.07535 -6.87281e-18
3
 Atoms. Timestep: 6000
Li -0.14578 -0.0841886 -3.1412e-18
Li 2.64311 -0.0968173 -3.31124e-18
Li 1.23776 2.33342 -1.05335e-17
3
 Atoms. Timestep: 6050
Li 0.14058 0.154975 -1.72844e-18
Li 2.92837 0.175633 -1.88257e-18
Li 1.5524 2.56981 -1.07259e-17
3
 Atoms. Timestep: 6100
Li 0.338504 0.324328 2.96797e-19
Li 3.12831 0.327492 3.6679e-19
Li 1.73618 2.73951 -7.58272e-18
3
 Atoms. Timestep: 6150
Li 0.378081 0.358633 2.26598e-18
Li 3.16142 0.335606 2.57474e-18
Li 1.74984 2.76996 -2.12672e-18
3
 Atoms. Timestep: 6200
Li 0.227735 0.228617 3.51828e-18
Li 3.00902 0.232349 3.88629e-18
Li 1.62161 2.6395 3.89878e-18
3
 Atoms. Timestep: 6250
Li -0.0514951 -0.00531016 3.57717e-18
Li 2.74729 0.0155325 3.8652e-18
Li 1.36592 2.41787 8.54202e-18
3
 Atoms. Timestep: 6300
Li -0.330668 -0.240334 2.4213e-18
Li 2.4516 -0.251637 2.46601e-18
Li 1.05064 2.16878 1.03542e-17
3
 Atoms. Timestep: 6350
Li -0.555683 -0.431026 3.35905e-19
Li 2.22348 -0.447099 2.12341e-19
Li 0.819946 1.97778 8.85082e-18
3
 Atoms. Timestep: 6400
Li -0.657855 -0.517558 -1.98308e-18
Li 2.13905 -0.500378 -2.11694e-18
Li 0.755441 1.90566 4.58672e-18
3
 Atoms. Timestep: 6450
Li -0.562951 -0.437764 -3.62794e-18
Li 2.22178 -0.428305 -3.81449e-18
Li 0.837591 1.97305 -1.02367e-18
3
 Atoms. Timestep: 6500
Li -0.328168 -0.237406 -4.04746e-18
Li 2.45572 -0.258567 -4.2765e-18
Li 1.04546 2.174 -6.13405e-18
3
 Atoms. Timestep: 6550
Li -0.0475728 -0.00247957 -3.06629e-18
Li 2.7386 -0.00560147 -3.30819e-18
Li 1.34284 2.41266 -9.14586e-18
3
 Atoms. Timestep: 6600
Li 0.195731 0.201885 -1.00268e-18
Li 2.98415 0.222529 -1.17866e-18
Li 1.60785 2.61643 -9.18281e-18
3
 Atoms. Timestep: 6650
Li 0.333424 0.321094 1.41766e-18
Li 3.12549 0.315189 1.50389e-18
Li 1.72438 2.73841 -6.37624e-18
3
 Atoms. Timestep: 6700
Li 0.314936 0.303844 3.41024e-18
Li 3.09123 0.284856 3.70093e-18
Li 1.68667 2.70965 -1.60577e-18
3
 Atoms. Timestep: 6750
Li 0.118851 0.137465 4.32685e-18
Li 2.90952 0.149851 4.64481e-18
Li 1.52491 2.55565 3.52685e-18
3
 Atoms. Timestep: 6800
Li -0.15121 -0.0892944 3.79419e-18
Li 2.64397 -0.0749074 4.03213e-18
Li 1.25882 2.33054 7.38008e-18
3
 Atoms. Timestep: 6850
Li -0.396503 -0.296314 1.96675e-18
Li 2.37989 -0.313512 2.02669e-18
Li 0.976777 2.10821 8.78508e-18
3
 Atoms. Timestep: 6900
Li -0.577383 -0.448823 -6.31931e-19
Li 2.2115 -0.456706 -6.60067e-19
Li 0.810198 1.96853 7.39047e-18
3
 Atoms. Timestep: 6950
Li -0.609727 -0.477721 -3.07737e-18
Li 2.18071 -0.458281 -3.13213e-18
Li 0.802291 1.93904 3.67277e-18
3
 Atoms. Timestep: 7000
Li -0.471135 -0.359296 -4.49162e-18
Li 2.31459 -0.359596 -4.66646e-18
Li 0.92145 2.05247 -1.04807e-18
3
 Atoms. Timestep: 7050
Li -0.22631 -0.151499 -4.41475e-18
Li 2.55911 -0.171675 -4.67711e-18
Li 1.14894 2.26176 -5.25928e-18
3
 Atoms. Timestep: 7100
Li 0.0331794 0.0645641 -2.84136e-18
Li 2.81596 0.0707216 -3.11893e-18
Li 1.42992 2.47624 -7.66791e-18
3
 Atoms. Timestep: 7150
Li 0.226946 0.22965 -2.86838e-19
Li 3.02224 0.246426 -4.53902e-19
Li 1.63914 2.64967 -7.60368e-18
3
 Atoms. Timestep: 7200
Li 0.313997 0.304173 2.36412e-18
Li 3.09847 0.291466 2.45592e-18
Li 1.69526 2.71528 -5.15236e-18
3
 Atoms. Timestep: 7250
Li 0.237154 0.237742 4.29926e-18
Li 3.01566 0.225746 4.54308e-18
Li 1.61604 2.64583 -1.15655e-18
3
 Atoms. Timestep: 7300
Li 0.0158548 0.0512311 4.86266e-18
Li 2.8128 0.0683415 5.11609e-18
Li 1.42915 2.47402 3.04265e-18
3
 Atoms. Timestep: 7350
Li -0.232954 -0.158812 3.79559e-18
Li 2.55256 -0.153058 3.99734e-18
Li 1.16478 2.2527 6.12701e-18
3
 Atoms. Timestep: 7400
Li -0.448499 -0.33952 1.43181e-18
Li 2.333 -0.358643 1.53075e-18
Li 0.925673 2.06995 7.17534e-18
3
 Atoms. Timestep: 7450
Li -0.574924 -0.447329 -1.48235e-18
Li 2.21464 -0.446783 -1.42369e-18
Li 0.820301 1.97036 5.91108e-18
3
 Atoms. Timestep: 7500
Li -0.549629 -0.427092 -3.93078e-18
Li 2.23743 -0.409268 -3.93854e-18
Li 0.859305 1.98612 2.82621e-18
3
 Atoms. Timestep: 7550
Li -0.380294 -0.281449 -5.07586e-18
Li 2.40947 -0.289709 -5.25361e-18
Li 1.00742 2.13404 -9.66551e-19
3
 Atoms. Timestep: 7600
Li -0.132438 -0.0735785 -4.54714e-18
Li 2.64748 -0.0890891 -4.82557e-18
Li 1.24409 2.33537 -4.30682e-18
3
 Atoms. Timestep: 7650
Li 0.0917764 0.114398 -2.50174e-18
Li 2.88017 0.127539 -2.78151e-18
Li 1.49736 2.53017 -6.16044e-18
3
 Atoms. Timestep: 7700
Li 0.242429 0.243333 3.78872e-19
Li 3.03766 0.253621 2.33107e-19
Li 1.64897 2.66317 -6.00994e-18
3
 Atoms. Timestep: 7750
Li 0.278718 0.273589 3.1389e-18
Li 3.05577 0.256994 3.21702e-18
Li 1.6529 2.67877 -3.97489e-18
3
 Atoms. Timestep: 7800
Li 0.150473 0.165119 4.94481e-18
Li 2.93837 0.161142 5.12173e-18
Li 1.541 2.58133 -8.04059e-19
3
 Atoms. Timestep: 7850
Li -0.0743063 -0.0252651 5.13811e-18
Li 2.71842 -0.00741275 5.32855e-18
Li 1.33753 2.39318 2.48302e-18
3
 Atoms. Timestep: 7900
Li -0.302652 -0.217246 3.61367e-18
Li 2.48033 -0.220273 3.79969e-18
Li 1.08622 2.19225 4.83257e-18
3
 Atoms. Timestep: 7950
Li -0.482043 -0.367536 8.71913e-19
Li 2.30418 -0.3847 1.01882e-18
Li 0.896191 2.04651 5.55213e-18
3
 Atoms. Timestep: 8000
Li -0.55297 -0.429883 -2.1982e-18
Li 2.23215 -0.421772 -2.07502e-18
Li 0.846587 1.9834 4.47675e-18
3
 Atoms. Timestep: 8050
Li -0.484186 -0.370697 -4.55568e-18
Li 2.30755 -0.357597 -4.54473e-18
Li 0.922998 2.04623 2.08705e-18
3
 Atoms. Timestep: 8100
Li -0.288798 -0.204376 -5.39863e-18
Li 2.49724 -0.217865 -5.57931e-18
Li 1.09252 2.20826 -8.09498e-19
3
 Atoms. Timestep: 8150
Li -0.0539593 -0.00817354 -4.48018e-18
Li 2.72505 -0.016585 -4.75207e-18
Li 1.32825 2.40021 -3.3151e-18
3
 Atoms. Timestep: 8200
Li 0.132537 0.14972 -2.09174e-18
Li 2.92822 0.166153 -2.34951e-18
Li 1.54461 2.57106 -4.64674e-18
3
 Atoms. Timestep: 8250
Li 0.244841 0.244909 9.78192e-19
Li 3.03163 0.247365 8.52143e-19
Li 1.64038 2.65755 -4.45286e-18
3
 Atoms. Timestep: 8300
Li 0.226019 0.22933 3.7488e-18
Li 3.00575 0.212336 3.79202e-18
Li 1.6012 2.63736 -2.89791e-18
3
 Atoms. Timestep: 8350
Li 0.0654227 0.0932715 5.34551e-18
Li 2.85701 0.0967706 5.44877e-18
Li 1.46427 2.51234 -5.32892e-19
3
 Atoms. Timestep: 8400
Li -0.153754 -0.0926826 5.178e-18
Li 2.63321 -0.0776173 5.3198e-18
Li 1.25279 2.32031 1.87019e-18
3
 Atoms. Timestep: 8450
Li -0.360113 -0.264676 3.2962e-18
Li 2.42696 -0.274527 3.48339e-18
Li 1.0249 2.14864 3.51915e-18
3
 Atoms. Timestep: 8500
Li -0.494803 -0.379257 3.2322e-19
Li 2.28848 -0.391424 5.12183e-19
Li 0.886293 2.03258 3.96373e-18
3
 Atoms. Timestep: 8550
Li -0.519901 -0.401962 -2.77714e-18
Li 2.26705 -0.388579 -2.61705e-18
Li 0.88514 2.01219 3.1504e-18
3
 Atoms. Timestep: 8600
Li -0.412208 -0.30903 -4.95407e-18
Li 2.38191 -0.302398 -4.94103e-18
Li 0.990566 2.10989 1.44651e-18
3
 Atoms. Timestep: 8650
Li -0.201703 -0.131807 -5.4881e-18
Li 2.577 -0.147508 -5.66175e-18
Li 1.17403 2.27495 -5.93687e-19
3
 Atoms. Timestep: 8700
Li 0.00647428 0.0431974 -4.25779e-18
Li 2.79307 0.042447 -4.50156e-18
Li 1.39911 2.45802 -2.29857e-18
3
 Atoms. Timestep: 8750
Li 0.161484 0.174171 -1.64094e-18
Li 2.95567 0.190167 -1.86455e-18
Li 1.57243 2.59367 -3.16423e-18
3
 Atoms. Timestep: 8800
Li 0.230439 0.232662 1.50722e-18
Li 3.01205 0.227515 1.38971e-18
Li 1.61681 2.64107 -2.99294e-18
3
 Atoms. Timestep: 8850
Li 0.162619 0.176269 4.18319e-18
Li 2.94867 0.162098 4.17676e-18
Li 1.5434 2.59019 -1.92849e-18
3
 Atoms. Timestep: 8900
Li -0.0136516 0.0256626 5.51134e-18
Li 2.77405 0.0351812 5.54767e-18
Li 1.38847 2.4408 -3.35932e-19
3
 Atoms. Timestep: 8950
Li -0.225446 -0.152411 5.0226e-18
Li 2.56325 -0.142661 5.13506e-18
Li 1.17736 2.26187 1.20741e-18
3
 Atoms. Timestep: 9000
Li -0.400167 -0.298293 2.88348e-18
Li 2.38662 -0.31204 3.07865e-18
Li 0.981331 2.11514 2.22304e-18
3
 Atoms. Timestep: 9050
Li -0.492242 -0.378111 -1.94813e-19
Li 2.28825 -0.383396 2.11625e-20
Li 0.893418 2.03138 2.4695e-18
3
 Atoms. Timestep: 9100
Li -0.477813 -0.365503 -3.2083e-18
Li 2.31586 -0.350197 -3.03632e-18
Li 0.932257 2.05384 1.94996e-18
3
 Atoms. Timestep: 9150
Li -0.334182 -0.243414 -5.13633e-18
Li 2.4538 -0.243792 -5.12643e-18
Li 1.05946 2.17035 8.96079e-19
3
 Atoms. Timestep: 9200
Li -0.12691 -0.0689051 -5.3855e-18
Li 2.65194 -0.0836853 -5.53668e-18
Li 1.2497 2.33846 -3.13533e-19
3
 Atoms. Timestep: 9250
Li 0.0538646 0.0835032 -3.91317e-18
Li 2.8462 0.0893311 -4.11325e-18
Li 1.45507 2.5029 -1.28528e-18
3
 Atoms. Timestep: 9300
Li 0.177794 0.187491 -1.16653e-18
Li 2.96546 0.199921 -1.35583e-18
Li 1.58239 2.60104 -1.76234e-18
3
 Atoms. Timestep: 9350
Li 0.198973 0.206886 1.95104e-18
Li 2.98348 0.196122 1.8275e-18
Li 1.58192 2.61812 -1.65646e-18
3
 Atoms. Timestep: 9400
Li 0.0969801 0.120321 4.43366e-18
Li 2.88297 0.111315 4.37411e-18
Li 1.4822 2.53442 -1.06509e-18
3
 Atoms. Timestep: 9450
Li -0.0889224 -0.0381507 5.47174e-18
Li 2.69751 -0.0249699 5.4576e-18
Li 1.31573 2.37525 -2.29585e-19
3
 Atoms. Timestep: 9500
Li -0.285694 -0.202224 4.708e-18
Li 2.50649 -0.198834 4.80651e-18
Li 1.11336 2.21509 5.1669e-19
3
 Atoms. Timestep: 9550
Li -0.422749 -0.318215 2.40546e-18
Li 2.35808 -0.332824 2.60582e-18
Li 0.955025 2.0905 9.91807e-19
3
 Atoms. Timestep: 9600
Li -0.479845 -0.367545 -6.59408e-19
Li 2.30562 -0.365745 -4.35256e-19
Li 0.91444 2.04603 1.10065e-18
3
 Atoms. Timestep: 9650
Li -0.424413 -0.320035 -3.48325e-18
Li 2.37024 -0.306123 -3.31686e-18
Li 0.984943 2.09973 8.7523e-19
3
 Atoms. Timestep: 9700
Li -0.257344 -0.178963 -5.13155e-18
Li 2.52405 -0.185706 -5.12089e-18
Li 1.12749 2.22937 4.52767e-19
3
 Atoms. Timestep: 9750
Li -0.0654527 -0.0166078 -5.12376e-18
Li 2.71985 -0.0278392 -5.23707e-18
Li 1.31745 2.39669 1.99749e-20
3
 Atoms. Timestep: 9800
Li 0.0914611 0.114689 -3.46939e-18
Li 2.88149 0.125179 -3.6198e-18
Li 1.49554 2.53154 -3.15222e-19
3
 Atoms. Timestep: 9850
Li 0.177567 0.187679 -6.91221e-19
Li 2.96404 0.1945 -8.54978e-19
Li 1.57671 2.60007 -4.69184e-19
3
 Atoms. Timestep: 9900
Li 0.157249 0.172087 2.29006e-18
Li 2.94401 0.158616 2.15029e-18
Li 1.53898 2.58566 -4.50622e-19
3
 Atoms. Timestep: 9950
Li 0.0308132 0.0634534 4.51161e-18
Li 2.81341 0.0609081 4.40561e-18
Li 1.41993 2.47458 -3.28846e-19
3
 Atoms. Timestep: 10000
Li -0.159851 -0.0972275 5.25624e-18
Li 2.63159 -0.0833947 5.21114e-18
Li 1.24787 2.31997 -2.14933e-19
3
 Atoms. Timestep: 10050
Li -0.0732948 -0.0487996 -3.63941e-18
Li 2.51924 -0.0589651 -3.56904e-18
Li 1.21416 2.19689 1.06706e-19
3
 Atoms. Timestep: 10100
Li -0.0094788 0.00935473 1.26399e-18
Li 2.62641 0.0195143 1.21178e-18
Li 1.31727 2.2916 1.86702e-19
3
 Atoms. Timestep: 10150
Li -0.218077 -0.145848 1.68584e-18
Li 2.5666 -0.152014 1.66536e-18
Li 1.16893 2.26659 -9.10872e-19
3
 Atoms. Timestep: 10200
Li -0.0107173 0.014245 -4.22412e-18
Li 2.66118 0.0110305 -4.20453e-18
Li 1.32242 2.32784 1.49518e-18
3
 Atoms. Timestep: 10250
Li -0.0899698 -0.0667918 5.39194e-18
Li 2.48239 -0.0625139 5.34271e-18
Li 1.19994 2.16126 -1.03845e-18
3
 Atoms. Timestep: 10300
Li -0.103095 -0.0532057 -4.8741e-18
Li 2.6441 -0.062894 -4.77954e-18
Li 1.26209 2.32592 -3.86159e-19
3
 Atoms. Timestep: 10350
Li -0.107683 -0.0584803 2.88854e-18
Li 2.64329 -0.045522 2.83326e-18
Li 1.27903 2.32356 2.15769e-18
3
 Atoms. Timestep: 10400
Li -0.086002 -0.063037 -3.86351e-19
Li 2.48064 -0.0724615 -3.70512e-19
Li 1.18917 2.16023 -2.99841e-18
3
 Atoms. Timestep: 10450
Li -0.0171997 0.0087242 -1.99777e-18
Li 2.66245 0.0184213 -2.00191e-18
Li 1.331 2.32882 2.69658e-18
3
 Atoms. Timestep: 10500
Li -0.218188 -0.146206 3.84051e-18
Li 2.5666 -0.149096 3.79288e-18
Li 1.17173 2.2663 -1.60001e-18
3
 Atoms. Timestep: 10550
Li -0.00377874 0.0143311 -4.70369e-18
Li 2.62397 0.00957564 -4.62897e-18
Li 1.30596 2.28976 7.67051e-20
3
 Atoms. Timestep: 10600
Li -0.0779529 -0.0530097 4.26162e-18
Li 2.52245 -0.0475921 4.21165e-18
Li 1.22695 2.1993 1.69487e-18
3
 Atoms. Timestep: 10650
Li -0.145306 -0.0854094 -2.51194e-18
Li 2.62644 -0.0972479 -2.45847e-18
Li 1.23032 2.31513 -3.57391e-18
3
 Atoms. Timestep: 10700
Li -0.0614986 -0.0243906 4.3561e-22
Li 2.65192 -0.0124872 -1.65674e-20
Li 1.3055 2.32504 4.80783e-18
3
 Atoms. Timestep: 10750
Li -0.0992991 -0.0752995 2.21159e-18
Li 2.45988 -0.0842125 2.16194e-18
Li 1.1726 2.14152 -4.22168e-18
3
 Atoms. Timestep: 10800
Li -0.0353011 -0.000863437 -3.50768e-18
Li 2.68613 0.00764097 -3.44948e-18
Li 1.33276 2.35537 1.90482e-18
3
 Atoms. Timestep: 10850
Li -0.1993 -0.13248 3.64884e-18
Li 2.57094 -0.131979 3.62472e-18
Li 1.18626 2.26733 1.4142e-18
3
 Atoms. Timestep: 10900
Li -0.00922583 0.00481484 -3.02423e-18
Li 2.58105 -0.000909531 -2.97726e-18
Li 1.28096 2.24784 -4.15157e-18
3
 Atoms. Timestep: 10950
Li -0.0681234 -0.0395296 1.81041e-18
Li 2.57215 -0.0325673 1.79891e-18
Li 1.25802 2.24726 5.47624e-18
3
 Atoms. Timestep: 11000
Li -0.178809 -0.11215 -1.65821e-19
Li 2.60393 -0.125338 -1.99556e-19
Li 1.20116 2.29807 -5.38936e-18
3
 Atoms. Timestep: 11050
Li -0.0198293 0.00512826 -1.50226e-18
Li 2.65009 0.0155405 -1.45906e-18
Li 1.32413 2.31684 3.95554e-18
3
 Atoms. Timestep: 11100
Li -0.111462 -0.0839288 2.65533e-18
Li 2.46037 -0.0924504 2.59043e-18
Li 1.16709 2.14388 -1.23876e-18
3
 Atoms. Timestep: 11150
Li -0.0611082 -0.017926 -2.87422e-18
Li 2.69423 -0.0115035 -2.80517e-18
Li 1.32212 2.36765 -2.32229e-18
3
 Atoms. Timestep: 11200
Li -0.164127 -0.1067 2.1344e-18
Li 2.57853 -0.103195 2.15424e-18
Li 1.21022 2.26908 5.70691e-18
3
 Atoms. Timestep: 11250
Li -0.0267188 -0.0130424 -1.1506e-18
Li 2.53998 -0.019403 -1.18056e-18
Li 1.25115 2.2096 -7.16371e-18
3
 Atoms. Timestep: 11300
Li -0.0613512 -0.0280872 2.25243e-19
Li 2.62292 -0.0192732 2.48974e-19
Li 1.28839 2.29673 6.1546e-18
3
 Atoms. Timestep: 11350
Li -0.198816 -0.129533 4.9813e-19
Li 2.58044 -0.142985 4.38846e-19
Li 1.17918 2.27783 -3.0531e-18
3
 Atoms. Timestep: 11400
Li 0.011034 0.0255916 -1.12638e-18
Li 2.63792 0.0344716 -1.07141e-18
Li 1.33217 2.30001 -7.17405e-19
3
 Atoms. Timestep: 11450
Li -0.120136 -0.0873859 1.61794e-18
Li 2.48121 -0.095427 1.60388e-18
Li 1.17356 2.16604 3.98819e-18
3
 Atoms. Timestep: 11500
Li -0.0910551 -0.0400081 -1.70722e-18
Li 2.68632 -0.0364628 -1.70605e-18
Li 1.30072 2.36468 -6.28608e-18
3
 Atoms. Timestep: 11550
Li -0.117788 -0.072717 1.32714e-18
Li 2.58756 -0.0669378 1.37782e-18
Li 1.23986 2.27058 7.06161e-18
3
 Atoms. Timestep: 11600
Li -0.0539888 -0.0366585 -7.88365e-19
Li 2.50793 -0.0435882 -8.65252e-19
Li 1.22099 2.18189 -5.74656e-18
3
 Atoms. Timestep: 11650
Li -0.0585722 -0.0203843 3.50765e-19
Li 2.66677 -0.00970026 3.79945e-19
Li 1.31334 2.33986 2.46472e-18
3
 Atoms. Timestep: 11700
Li -0.20232 -0.134927 -9.29045e-20
Li 2.55959 -0.147558 -9.41142e-20
Li 1.16769 2.25755 1.98253e-18
3
 Atoms. Timestep: 11750
Li 0.0261044 0.0337379 -3.76737e-19
Li 2.61774 0.0413155 -3.7752e-19
Li 1.32851 2.27761 -5.57273e-18
3
 Atoms. Timestep: 11800
Li -0.12322 -0.0847887 1.06817e-18
Li 2.51789 -0.0920026 1.1157e-18
Li 1.19106 2.20315 7.08702e-18
3
 Atoms. Timestep: 11850
Li -0.120959 -0.0639035 -1.7539e-18
Li 2.66444 -0.0636881 -1.83302e-18
Li 1.27194 2.34781 -6.31076e-18
3
 Atoms. Timestep: 11900
Li -0.067217 -0.0357226 2.04265e-18
Li 2.59602 -0.0284901 2.09118e-18
Li 1.27066 2.27096 3.92339e-18
3
 Atoms. Timestep: 11950
Li -0.0865978 -0.0622 -1.69028e-18
Li 2.48988 -0.0698525 -1.73713e-18
Li 1.19501 2.16901 -7.87312e-19
3
 Atoms. Timestep: 12000
Li -0.0605623 -0.0177776 9.65885e-19
Li 2.69745 -0.0056086 9.70009e-19
Li 1.329 2.3706 -2.6028e-18
3
 Atoms. Timestep: 12050
Li -0.188589 -0.127396 -8.74654e-20
Li 2.54422 -0.138395 -2.57366e-20
Li 1.16827 2.23996 5.48164e-18
3