# LAMMPS data file for 7 Li atoms

7 atoms
1 atom types

0.0 20.0 xlo xhi
0.0 20.0 ylo yhi
0.0 20.0 zlo zhi

Masses

1 6.94

Atoms

1 1 -3.427600 -0.856900 0.427500
2 1 0.000000 -0.856900 0.427500
3 1 0.000000 -4.282600 0.427500
4 1 1.713800 0.856900 -1.284400
5 1 3.427600 2.570700 0.427500
6 1 0.000000 2.570700 0.427500
7 1 0.000000 2.570700 -2.998200
