# Simple test

3 atoms
1 atom types

0.0 20.0 xlo xhi
0.0 20.0 ylo yhi
0.0 20.0 zlo zhi

Masses

1 6.94

Atoms

1 1 1.0 1.0 1.0
2 1 5.0 5.0 5.0
3 1 10.0 10.0 10.0
