8
 Atoms. Timestep: 120
Li 3.6394 2.88068 7.08481
Li 3.16424 4.31194 4.84909
Li 5.59096 4.60941 6.45872
Li 5.03673 2.34805 4.70709
Li 5.48254 4.90827 3.66144
Li 7.11472 6.54601 5.09585
Li 4.30037 6.82787 5.21845
Li 5.67104 7.56967 2.92076
8
 Atoms. Timestep: 140
Li 3.54811 2.74532 7.14583
Li 3.1036 4.42244 4.883
Li 5.55151 4.6128 6.29112
Li 5.11063 2.38483 4.8139
Li 5.58292 4.82617 3.52184
Li 7.116 6.60173 5.1247
Li 4.35532 6.84486 5.29574
Li 5.6319 7.56376 2.92007
8
 Atoms. Timestep: 160
Li 3.58812 2.8099 7.10595
Li 3.15055 4.37011 4.87189
Li 5.56178 4.60265 6.37377
Li 5.07347 2.36621 4.77086
Li 5.53419 4.86831 3.58605
Li 7.11372 6.57834 5.1057
Li 4.33575 6.84553 5.25842
Li 5.64242 7.56084 2.92357
8
 Atoms. Timestep: 180
Li 3.6168 2.84382 7.11124
Li 3.13152 4.34201 4.85291
Li 5.58965 4.61987 6.41276
Li 5.05874 2.35688 4.72736
Li 5.51074 4.88327 3.62646
Li 7.11669 6.55739 5.10823
Li 4.30887 6.82506 5.24053
Li 5.66699 7.5736 2.91671
8
 Atoms. Timestep: 200
Li 3.5358 2.72954 7.14324
Li 3.11234 4.43529 4.89326
Li 5.53529 4.60079 6.2691
Li 5.11749 2.39298 4.83769
Li 5.59445 4.8191 3.50059
Li 7.11451 6.61348 5.12378
Li 4.36915 6.85366 5.30351
Li 5.62097 7.55705 2.92503
8
 Atoms. Timestep: 220
Li 3.62843 2.87027 7.08343
Li 3.17111 4.32133 4.85221
Li 5.58806 4.61139 6.45403
Li 5.04141 2.3438 4.7139
Li 5.4883 4.9042 3.65394
Li 7.1138 6.54855 5.09449
Li 4.30657 6.83494 5.22508
Li 5.66232 7.56741 2.91914
8
 Atoms. Timestep: 240
Li 3.56969 2.76894 7.1499
Li 3.08812 4.403 4.87198
Li 5.56495 4.61748 6.30954
Li 5.10119 2.38663 4.79053
Li 5.56891 4.83497 3.54513
Li 7.11835 6.59099 5.12744
Li 4.33926 6.82823 5.28375
Li 5.64954 7.57166 2.91792
8
 Atoms. Timestep: 260
Li 3.56793 2.78586 7.10153
Li 3.16539 4.38887 4.88544
Li 5.54441 4.59428 6.35135
Li 5.0823 2.36722 4.79853
Li 5.54948 4.85951 3.55737
Li 7.1113 6.59257 5.10341
Li 4.35351 6.86244 5.26934
Li 5.62568 7.55115 2.92923
8
 Atoms. Timestep: 280
Li 3.62525 2.85668 7.113
Li 3.12576 4.33364 4.84339
Li 5.60247 4.62958 6.43033
Li 5.05474 2.35151 4.70749
Li 5.50173 4.88755 3.64764
Li 7.11805 6.54606 5.10856
Li 4.29837 6.81612 5.2369
Li 5.67363 7.58076 2.90887
8
 Atoms. Timestep: 300
Li 3.54518 2.73616 7.14394
Li 3.10596 4.42775 4.89471
Li 5.5313 4.59233 6.26556
Li 5.11381 2.40139 4.84057
Li 5.59275 4.82258 3.49691
Li 7.11502 6.61711 5.1253
Li 4.36792 6.84913 5.29726
Li 5.62806 7.55546 2.93194
8
 Atoms. Timestep: 320
Li 3.60608 2.84792 7.08129
Li 3.18598 4.341 4.85898
Li 5.58215 4.61672 6.443
Li 5.05065 2.33469 4.72775
Li 5.49928 4.89469 3.63861
Li 7.1117 6.55406 5.0924
Li 4.3185 6.84926 5.23837
Li 5.64565 7.56356 2.9158
8
 Atoms. Timestep: 340
Li 3.59436 2.79705 7.15046
Li 3.07266 4.38032 4.86074
Li 5.57699 4.61733 6.33218
Li 5.09043 2.39123 4.76638
Li 5.55468 4.84598 3.57235
Li 7.12153 6.5793 5.12818
Li 4.32285 6.81193 5.27058
Li 5.6665 7.57875 2.91533
8
 Atoms. Timestep: 360
Li 3.55436 2.76697 7.10355
Li 3.17211 4.40252 4.89565
Li 5.53216 4.59071 6.32889
Li 5.08853 2.3684 4.81987
Li 5.55985 4.85305 3.53072
Li 7.10878 6.60509 5.10516
Li 4.36629 6.87065 5.27542
Li 5.61792 7.54452 2.93694
8
 Atoms. Timestep: 380
Li 3.62137 2.8581 7.10832
Li 3.13224 4.33527 4.83966
Li 5.60849 4.63606 6.44373
Li 5.05546 2.34347 4.69812
Li 5.50018 4.88656 3.66167
Li 7.11875 6.53839 5.10493
Li 4.29549 6.8197 5.24115
Li 5.66802 7.58435 2.89863
8
 Atoms. Timestep: 400
Li 3.56565 2.75435 7.14747
Li 3.0895 4.41073 4.8909
Li 5.53284 4.58477 6.26867
Li 5.10582 2.41309 4.83391
Li 5.58523 4.83184 3.5023
Li 7.11658 6.61659 5.12849
Li 4.36057 6.8346 5.28455
Li 5.64381 7.55595 2.93991
8
 Atoms. Timestep: 420
Li 3.57961 2.81976 7.08171
Li 3.20332 4.36446 4.86801
Li 5.57511 4.62424 6.42568
Li 5.06139 2.32333 4.74543
Li 5.51134 4.88173 3.6163
Li 7.10887 6.56219 5.09231
Li 4.33162 6.86576 5.25331
Li 5.62876 7.56043 2.91344
8
 Atoms. Timestep: 440
Li 3.61406 2.82228 7.14404
Li 3.06381 4.36116 4.85186
Li 5.58516 4.61263 6.35744
Li 5.0816 2.39601 4.74634
Li 5.54478 4.85688 3.60113
Li 7.12464 6.56769 5.12418
Li 4.31086 6.80258 5.26101
Li 5.67509 7.58266 2.9102
8
 Atoms. Timestep: 460
Li 3.55155 2.75744 7.11373
Li 3.16674 4.40778 4.90015
Li 5.52711 4.59214 6.30813
Li 5.09069 2.37181 4.8314
Li 5.56276 4.85026 3.50895
Li 7.10707 6.61461 5.11222
Li 4.37168 6.86588 5.27458
Li 5.6224 7.54198 2.94706
8
 Atoms. Timestep: 480
Li 3.60661 2.84852 7.09855
Li 3.15016 4.34517 4.84256
Li 5.6077 4.63847 6.45104
Li 5.06006 2.3328 4.70006
Li 5.50526 4.88045 3.66632
Li 7.1182 6.53525 5.09834
Li 4.29888 6.83604 5.25147
Li 5.65313 7.5852 2.88786
8
 Atoms. Timestep: 500
Li 3.59038 2.77847 7.15063
Li 3.06812 4.39046 4.88273
Li 5.5385 4.57934 6.2789
Li 5.09652 2.42609 4.82014
Li 5.57544 4.84494 3.51715
Li 7.11908 6.61188 5.13078
Li 4.3513 6.81432 5.27001
Li 5.66067 7.55639 2.94587
8
 Atoms. Timestep: 520
Li 3.55739 2.79331 7.08798
Li 3.21671 4.38444 4.87722
Li 5.56875 4.63185 6.40273
Li 5.07022 2.31359 4.76316
Li 5.52001 4.86783 3.58868
Li 7.10613 6.57231 5.09695
Li 4.34127 6.87844 5.26463
Li 5.61951 7.56013 2.91486
8
 Atoms. Timestep: 540
Li 3.62305 2.83866 7.12967
Li 3.0661 4.35042 4.84743
Li 5.58828 4.60509 6.38296
Li 5.07695 2.39745 4.73382
Li 5.542 4.86572 3.62838
Li 7.12619 6.55709 5.11421
Li 4.30586 6.80489 5.25794
Li 5.67158 7.58259 2.90178
8
 Atoms. Timestep: 560
Li 3.55941 2.75831 7.13005
Li 3.14908 4.4048 4.89771
Li 5.52937 4.59738 6.2918
Li 5.08904 2.37949 4.83234
Li 5.55848 4.85102 3.49495
Li 7.10769 6.62054 5.12347
Li 4.3703 6.84787 5.26791
Li 5.63663 7.5425 2.95795
8
 Atoms. Timestep: 580
Li 3.58659 2.832 7.08794
Li 3.17524 4.35859 4.85149
Li 5.60132 4.63659 6.4502
Li 5.06619 2.32026 4.71137
Li 5.51365 4.87107 3.66019
Li 7.11564 6.53676 5.09166
Li 4.30507 6.86115 5.26343
Li 5.63629 7.58548 2.87992
8
 Atoms. Timestep: 600
Li 3.61136 2.80142 7.14958
Li 3.04855 4.37398 4.87211
Li 5.54612 4.57708 6.29633
Li 5.08924 2.43744 4.80289
Li 5.56753 4.85881 3.54056
Li 7.12221 6.60374 5.12921
Li 4.34441 6.79462 5.25891
Li 5.67059 7.55481 2.9466
8
 Atoms. Timestep: 620
Li 3.54564 2.77499 7.10122
Li 3.22066 4.39546 4.88424
Li 5.56469 4.63733 6.37636
Li 5.07477 2.30971 4.77775
Li 5.52247 4.85545 3.55859
Li 7.10485 6.58357 5.10754
Li 4.3448 6.88234 5.26894
Li 5.62212 7.56305 2.92155
8
 Atoms. Timestep: 640
Li 3.62017 2.84375 7.10992
Li 3.08098 4.34943 4.84867
Li 5.58615 4.59691 6.40532
Li 5.07679 2.3922 4.7298
Li 5.54616 4.87154 3.65056
Li 7.12438 6.54819 5.09948
Li 4.30739 6.81992 5.26121
Li 5.65798 7.57996 2.89124
8
 Atoms. Timestep: 660
Li 3.57376 2.76706 7.14734
Li 3.12249 4.3969 4.88865
Li 5.53735 4.60469 6.28328
Li 5.08549 2.39243 4.82448
Li 5.54996 4.85375 3.49102
Li 7.1122 6.62307 5.13575
Li 4.36525 6.82054 5.2592
Li 5.65349 7.54346 2.96648
8
 Atoms. Timestep: 680
Li 3.56866 2.81475 7.08153
Li 3.20107 4.36965 4.86438
Li 5.59168 4.63084 6.44006
Li 5.07087 2.30763 4.72824
Li 5.52109 4.86138 3.64346
Li 7.11067 6.54222 5.08836
Li 4.3102 6.8881 5.27191
Li 5.62576 7.58732 2.87828
8
 Atoms. Timestep: 700
Li 3.62261 2.81705 7.14221
Li 3.03716 4.36654 4.86166
Li 5.55308 4.57844 6.31952
Li 5.08635 2.44367 4.78586
Li 5.56438 4.87018 3.56981
Li 7.12518 6.59338 5.12204
Li 4.34237 6.78176 5.2549
Li 5.66887 7.55088 2.94021
8
 Atoms. Timestep: 720
Li 3.54618 2.76804 7.11922
Li 3.21198 4.39567 4.88699
Li 5.56425 4.63933 6.35072
Li 5.07454 2.31502 4.78741
Li 5.51877 4.8463 3.52994
Li 7.10666 6.59509 5.1229
Li 4.34256 6.87526 5.26615
Li 5.63507 7.5672 2.93287
8
 Atoms. Timestep: 740
Li 3.60879 2.83913 7.0903
Li 3.10665 4.35583 4.85553
Li 5.5797 4.58993 6.42025
Li 5.07956 2.37847 4.73298
Li 5.55409 4.87478 3.66454
Li 7.11765 6.54122 5.08347
Li 4.31237 6.84454 5.26769
Li 5.64119 7.57801 2.88144
8
 Atoms. Timestep: 760
Li 3.58858 2.7788 7.15948
Li 3.09282 4.38906 4.87496
Li 5.54793 4.61242 6.28535
Li 5.08268 2.40963 4.81128
Li 5.54145 4.85607 3.49777
Li 7.12144 6.62301 5.1451
Li 4.36053 6.79084 5.25303
Li 5.66457 7.54207 2.96923
8
 Atoms. Timestep: 780
Li 3.55852 2.80267 7.08262
Li 3.22084 4.37371 4.8781
Li 5.58226 4.62256 6.42126
Li 5.07186 2.29761 4.74644
Li 5.5244 4.85449 3.61853
Li 7.10369 6.55027 5.09076
Li 4.31171 6.90931 5.2735
Li 5.62672 7.59127 2.88499
8
 Atoms. Timestep: 800
Li 3.62232 2.82221 7.12955
Li 3.0382 4.36976 4.85405
Li 5.55694 4.58281 6.34496
Li 5.08837 2.44159 4.77175
Li 5.56623 4.87685 3.60047
Li 7.12665 6.58216 5.10991
Li 4.34481 6.77982 5.25833
Li 5.65648 7.54671 2.92717
8
 Atoms. Timestep: 820
Li 3.55632 2.77156 7.13691
Li 3.19082 4.38724 4.88443
Li 5.56759 4.6381 6.33096
Li 5.07092 2.33084 4.792
Li 5.51182 4.84099 3.50695
Li 7.11303 6.60598 5.13964
Li 4.33767 6.85846 5.25929
Li 5.65182 7.56873 2.94602
8
 Atoms. Timestep: 840
Li 3.59462 2.82938 7.07707
Li 3.13846 4.36496 4.86654
Li 5.57129 4.58513 6.42399
Li 5.08269 2.35699 4.74069
Li 5.56118 4.87677 3.6686
Li 7.10542 6.53608 5.07057
Li 4.31661 6.8724 5.27298
Li 5.62973 7.58019 2.87576
8
 Atoms. Timestep: 860
Li 3.59872 2.78822 7.16217
Li 3.06667 4.38557 4.86
Li 5.55709 4.61914 6.29879
Li 5.08271 2.42796 4.7965
Li 5.53656 4.85595 3.51348
Li 7.13483 6.62137 5.14859
Li 4.35924 6.76658 5.25258
Li 5.66418 7.53712 2.96408
8
 Atoms. Timestep: 880
Li 3.55807 2.79904 7.09115
Li 3.22929 4.36928 4.88921
Li 5.57658 4.61405 6.39675
Li 5.06856 2.29343 4.76261
Li 5.52299 4.85244 3.59002
Li 7.09617 6.55919 5.09883
Li 4.30948 6.91894 5.26813
Li 5.63886 7.59552 2.89949
8
 Atoms. Timestep: 900
Li 3.61298 2.81779 7.11564
Li 3.05261 4.38117 4.85127
Li 5.55655 4.58835 6.36775
Li 5.09385 2.42921 4.76187
Li 5.5707 4.87828 3.6273
Li 7.125 6.57132 5.09567
Li 4.34874 6.78951 5.26627
Li 5.63956 7.54626 2.91042
8
 Atoms. Timestep: 920
Li 3.57061 2.78111 7.14844
Li 3.16073 4.37506 4.87725
Li 5.57311 4.63526 6.3214
Li 5.06645 2.35598 4.79265
Li 5.50593 4.83922 3.49302
Li 7.12458 6.61551 5.15355
Li 4.33475 6.83601 5.25279
Li 5.66384 7.56376 2.9571
8
 Atoms. Timestep: 940
Li 3.58314 2.82021 7.07452
Li 3.17016 4.3721 4.87897
Li 5.56424 4.58268 6.41509
Li 5.08388 2.3312 4.74987
Li 5.56372 4.87871 3.66313
Li 7.08871 6.53245 5.06414
Li 4.31645 6.89631 5.27384
Li 5.6297 7.58824 2.87665
8
 Atoms. Timestep: 960
Li 3.60166 2.79163 7.15494
Li 3.04946 4.3881 4.84761
Li 5.56149 4.62362 6.32134
Li 5.08624 2.44286 4.78324
Li 5.5368 4.8527 3.53424
Li 7.14996 6.61898 5.14546
Li 4.36234 6.75385 5.25797
Li 5.65206 7.53015 2.95139
8
 Atoms. Timestep: 980
Li 3.56539 2.80342 7.10357
Li 3.22427 4.35855 4.895
Li 5.57645 4.60801 6.37139
Li 5.06223 2.29802 4.77488
Li 5.51877 4.85548 3.56367
Li 7.09054 6.56756 5.11026
Li 4.30588 6.91456 5.25896
Li 5.65645 7.59629 2.91847
8
 Atoms. Timestep: 1000
Li 3.59974 2.80825 7.1058
Li 3.07775 4.39554 4.85384
Li 5.55278 4.59245 6.3832
Li 5.10018 2.40652 4.7561
Li 5.57431 4.87544 3.64568
Li 7.11889 6.56177 5.08309
Li 4.34977 6.80835 5.27412
Li 5.62659 7.55358 2.89436
8
 Atoms. Timestep: 1020
Li 3.5832 2.79052 7.14973
Li 3.12759 4.36443 4.86763
Li 5.57789 4.63291 6.32376
Li 5.06358 2.38697 4.79115
Li 5.50467 4.8402 3.4897
Li 7.14043 6.62311 5.16132
Li 4.33802 6.81321 5.25016
Li 5.66462 7.55055 2.96276
8
 Atoms. Timestep: 1040
Li 3.57765 2.81622 7.083
Li 3.19569 4.37454 4.88956
Li 5.56152 4.58221 6.3957
Li 5.08211 2.30635 4.75799
Li 5.56036 4.88088 3.6506
Li 7.07051 6.53022 5.06524
Li 4.31022 6.91071 5.26981
Li 5.64193 7.60077 2.88429
8
 Atoms. Timestep: 1060
Li 3.59804 2.78844 7.14137
Li 3.04406 4.39515 4.84087
Li 5.55981 4.62475 6.3479
Li 5.09226 2.44973 4.77332
Li 5.54143 4.84728 3.55508
Li 7.16273 6.61602 5.13709
Li 4.36817 6.75529 5.26635
Li 5.63349 7.52524 2.93422
8
 Atoms. Timestep: 1080
Li 3.576 2.81191 7.11441
Li 3.20731 4.34624 4.89436
Li 5.58108 4.60668 6.35056
Li 5.05533 2.31303 4.78285
Li 5.51465 4.86205 3.54468
Li 7.08971 6.57486 5.12174
Li 4.30484 6.89756 5.25066
Li 5.67108 7.58958 2.93692
8
 Atoms. Timestep: 1100
Li 3.58822 2.79982 7.10421
Li 3.10842 4.40728 4.86066
Li 5.54805 4.59275 6.38862
Li 5.10476 2.3758 4.75331
Li 5.57429 4.87008 3.65314
Li 7.10787 6.55387 5.07508
Li 4.34394 6.83186 5.278
Li 5.62444 7.57045 2.88319
8
 Atoms. Timestep: 1120
Li 3.5901 2.79441 7.14046
Li 3.09769 4.35883 4.85852
Li 5.57905 4.63259 6.33625
Li 5.06371 2.41887 4.78917
Li 5.50947 4.84292 3.496
Li 7.15793 6.62838 5.16172
Li 4.34932 6.79488 5.25243
Li 5.65274 7.53103 2.96165
8
 Atoms. Timestep: 1140
Li 3.57841 2.81903 7.09858
Li 3.21085 4.37248 4.89555
Li 5.56456 4.58335 6.37138
Li 5.07793 2.28815 4.76359
Li 5.55215 4.88252 3.63496
Li 7.05533 6.52979 5.07256
Li 4.29914 6.91321 5.26327
Li 5.66164 7.61336 2.89631
8
 Atoms. Timestep: 1160
Li 3.59108 2.78145 7.12766
Li 3.0504 4.40301 4.84115
Li 5.55306 4.62163 6.37197
Li 5.09865 2.4452 4.76715
Li 5.54829 4.84173 3.57143
Li 7.16848 6.61197 5.12613
Li 4.37318 6.76975 5.27339
Li 5.61686 7.52717 2.91732
8
 Atoms. Timestep: 1180
Li 3.58494 2.81871 7.11874
Li 3.18266 4.33734 4.8881
Li 5.58762 4.61121 6.33836
Li 5.05042 2.33826 4.78727
Li 5.51301 4.86937 3.53599
Li 7.09597 6.58136 5.1305
Li 4.30995 6.87228 5.24721
Li 5.67543 7.57336 2.95003
8
 Atoms. Timestep: 1200
Li 3.58228 2.79799 7.11181
Li 3.13867 4.41273 4.86937
Li 5.54529 4.58812 6.38437
Li 5.10607 2.34117 4.75205
Li 5.5697 4.86412 3.65015
Li 7.09302 6.5478 5.07265
Li 4.32977 6.85515 5.27649
Li 5.63521 7.59482 2.8793
8
 Atoms. Timestep: 1220
Li 3.59045 2.79039 7.12448
Li 3.07601 4.35875 4.8526
Li 5.57515 4.63459 6.35394
Li 5.06665 2.44622 4.78778
Li 5.51927 4.84641 3.50865
Li 7.17304 6.63082 5.15592
Li 4.367 6.78415 5.25779
Li 5.63244 7.51057 2.95505
8
 Atoms. Timestep: 1240
Li 3.58294 2.8266 7.11463
Li 3.21407 4.36851 4.8954
Li 5.57272 4.58612 6.3493
Li 5.07312 2.28129 4.76643
Li 5.54171 4.88249 3.62048
Li 7.04801 6.53187 5.08321
Li 4.28685 6.90475 5.25814
Li 5.68058 7.62027 2.90862
8
 Atoms. Timestep: 1260
Li 3.5849 2.77571 7.11981
Li 3.0661 4.40767 4.84789
Li 5.544 4.61383 6.38775
Li 5.10307 2.428 4.76407
Li 5.55471 4.83834 3.58045
Li 7.16375 6.60623 5.11539
Li 4.37361 6.79318 5.27533
Li 5.60985 7.53895 2.9055
8
 Atoms. Timestep: 1280
Li 3.58878 2.81855 7.11451
Li 3.15566 4.335 4.87851
Li 5.59267 4.62137 6.33616
Li 5.04908 2.37137 4.7893
Li 5.51482 4.87463 3.53746
Li 7.10975 6.58744 5.13536
Li 4.3226 6.84433 5.25001
Li 5.66664 7.5492 2.95487
8
 Atoms. Timestep: 1300
Li 3.58274 2.80521 7.12558
Li 3.1633 4.4114 4.87716
Li 5.54668 4.57928 6.37394
Li 5.1042 2.3078 4.75126
Li 5.56151 4.85916 3.63994
Li 7.07703 6.54376 5.07474
Li 4.30914 6.87434 5.27117
Li 5.6554 7.62096 2.88242
8
 Atoms. Timestep: 1320
Li 3.58626 2.78007 7.10847
Li 3.06537 4.36205 4.85155
Li 5.5667 4.6378 6.3702
Li 5.0708 2.46399 4.78728
Li 5.53113 4.85006 3.523
Li 7.18151 6.63003 5.14689
Li 4.38647 6.78178 5.26257
Li 5.61177 7.49611 2.94624
8
 Atoms. Timestep: 1340
Li 3.58765 2.83415 7.12445
Li 3.20614 4.36606 4.88932
Li 5.58362 4.59087 6.336
Li 5.06983 2.28831 4.7672
Li 5.53226 4.88005 3.61053
Li 7.05199 6.53684 5.09395
Li 4.27782 6.88878 5.25777
Li 5.69069 7.61684 2.91698
8
 Atoms. Timestep: 1360
Li 3.58251 2.77633 7.12103
Li 3.0877 4.40667 4.85882
Li 5.53603 4.60201 6.39198
Li 5.10407 2.39944 4.76292
Li 5.55846 4.8385 3.58186
Li 7.14779 6.59876 5.10692
Li 4.36735 6.82013 5.27093
Li 5.6161 7.56006 2.90175
8
 Atoms. Timestep: 1380
Li 3.5869 2.8089 7.10371
Li 3.13103 4.33939 4.86865
Li 5.59366 4.63526 6.34209
Li 5.05126 2.40795 4.79014
Li 5.51959 4.87637 3.54586
Li 7.12909 6.59305 5.13693
Li 4.34102 6.81884 5.2573
Li 5.64746 7.52215 2.95152
8
 Atoms. Timestep: 1400
Li 3.58761 2.81983 7.13944
Li 3.17889 4.40568 4.88156
Li 5.55297 4.56875 6.36287
Li 5.10065 2.2811 4.75042
Li 5.55215 4.85605 3.62753
Li 7.0636 6.54188 5.07894
Li 4.28677 6.88737 5.26562
Li 5.67737 7.64124 2.88982
8
 Atoms. Timestep: 1420
Li 3.58099 2.76829 7.0993
Li 3.06647 4.36535 4.85562
Li 5.55569 4.64022 6.37868
Li 5.07395 2.46835 4.78751
Li 5.54142 4.85366 3.53449
Li 7.18029 6.62614 5.13813
Li 4.4022 6.78633 5.26331
Li 5.599 7.49356 2.93917
8
 Atoms. Timestep: 1440
Li 3.58968 2.83622 7.12412
Li 3.18935 4.36758 4.87919
Li 5.5941 4.59771 6.33526
Li 5.06951 2.30906 4.76701
Li 5.52647 4.87566 3.60637
Li 7.06805 6.54434 5.10242
Li 4.27529 6.86983 5.26309
Li 5.68755 7.60149 2.91874
8
 Atoms. Timestep: 1460
Li 3.5846 2.78617 7.13017
Li 3.11156 4.40021 4.8706
Li 5.53199 4.58819 6.38511
Li 5.10168 2.36348 4.76249
Li 5.55847 4.84193 3.57826
Li 7.1229 6.59014 5.10134
Li 4.35513 6.84544 5.26218
Li 5.63366 7.58635 2.90605
8
 Atoms. Timestep: 1480
Li 3.58125 2.79119 7.09179
Li 3.11209 4.34779 4.86138
Li 5.5896 4.64957 6.35164
Li 5.05528 2.44193 4.79079
Li 5.52567 4.87495 3.55562
Li 7.1502 6.59795 5.13704
Li 4.36085 6.79915 5.26503
Li 5.62505 7.49936 2.94292
8
 Atoms. Timestep: 1500
Li 3.59346 2.83672 7.14673
Li 3.18398 4.39947 4.88132
Li 5.56325 4.55994 6.35702
Li 5.09767 2.26588 4.74941
Li 5.54441 4.85503 3.61829
Li 7.0562 6.54188 5.0826
Li 4.26834 6.89407 5.26339
Li 5.69269 7.6489 2.89745
8
 Atoms. Timestep: 1520
Li 3.57764 2.76111 7.10116
Li 3.07816 4.36584 4.86346
Li 5.54473 4.64002 6.37553
Li 5.07443 2.45774 4.78806
Li 5.54733 4.8567 3.54025
Li 7.16857 6.61998 5.13219
Li 4.41008 6.79502 5.25883
Li 5.59907 7.5055 2.93672
8
 Atoms. Timestep: 1540
Li 3.58817 2.82918 7.11427
Li 3.16671 4.37327 4.86801
Li 5.60129 4.60605 6.34668
Li 5.07213 2.34043 4.767
Li 5.52546 4.87107 3.60646
Li 7.09406 6.55339 5.10785
Li 4.27991 6.85185 5.2719
Li 5.67228 7.57665 2.91403
8
 Atoms. Timestep: 1560
Li 3.58958 2.80441 7.14205
Li 3.13442 4.39099 4.87993
Li 5.53327 4.57539 6.37142
Li 5.09762 2.32637 4.76166
Li 5.55526 4.84679 3.57461
Li 7.09367 6.58113 5.09779
Li 4.34026 6.86557 5.25343
Li 5.65592 7.61125 2.91531
8
 Atoms. Timestep: 1580
Li 3.57511 2.77046 7.08542
Li 3.10059 4.35605 4.85845
Li 5.58116 4.66048 6.3591
Li 5.05863 2.46683 4.79206
Li 5.53107 4.87181 3.56057
Li 7.16877 6.60218 5.13788
Li 4.3769 6.7865 5.269
Li 5.60777 7.48759 2.93373
8
 Atoms. Timestep: 1600
Li 3.59728 2.84932 7.14301
Li 3.17896 4.3962 4.87689
Li 5.57521 4.55582 6.36039
Li 5.09708 2.26532 4.74824
Li 5.54029 4.8562 3.61613
Li 7.057 6.54312 5.08379
Li 4.25833 6.89533 5.26609
Li 5.69585 7.64058 2.90167
8
 Atoms. Timestep: 1620
Li 3.57752 2.76316 7.1136
Li 3.0979 4.36271 4.87262
Li 5.53622 4.63636 6.36112
Li 5.07211 2.43374 4.78832
Li 5.54787 4.85788 3.54024
Li 7.14804 6.61281 5.12985
Li 4.4088 6.80528 5.25101
Li 5.61154 7.52997 2.93944
8
 Atoms. Timestep: 1640
Li 3.58436 2.81293 7.10002
Li 3.14156 4.3809 4.85884
Li 5.60344 4.61462 6.36542
Li 5.076 2.37676 4.76813
Li 5.52858 4.86846 3.60693
Li 7.12548 6.56295 5.1111
Li 4.28969 6.83688 5.27992
Li 5.6509 7.54841 2.90584
8
 Atoms. Timestep: 1660
Li 3.59471 2.8266 7.14961
Li 3.15353 4.38303 4.88466
Li 5.53949 4.56655 6.35774
Li 5.09447 2.29525 4.75954
Li 5.55039 4.85086 3.57649
Li 7.06565 6.57243 5.09446
Li 4.32711 6.87925 5.24918
Li 5.67464 7.62794 2.92452
8
 Atoms. Timestep: 1680
Li 3.57128 2.75343 7.08961
Li 3.09692 4.36048 4.85991
Li 5.57038 4.66504 6.3597
Li 5.05926 2.47757 4.7944
Li 5.53441 4.86806 3.55616
Li 7.18112 6.60595 5.14104
Li 4.38522 6.78057 5.26701
Li 5.6014 7.49081 2.92838
8
 Atoms. Timestep: 1700
Li 3.5978 2.85232 7.12829
Li 3.16564 4.39721 4.87019
Li 5.58589 4.55798 6.37326
Li 5.09923 2.2799 4.74707
Li 5.54019 4.85972 3.62197
Li 7.06617 6.54489 5.08198
Li 4.25848 6.89197 5.27251
Li 5.6866 7.6179 2.90093
8
 Atoms. Timestep: 1720
Li 3.57994 2.7756 7.13135
Li 3.12221 4.35756 4.88046
Li 5.53185 4.62951 6.3405
Li 5.0686 2.40098 4.78753
Li 5.544 4.85568 3.53723
Li 7.12244 6.60584 5.13005
Li 4.39997 6.81603 5.24391
Li 5.63099 7.5607 2.94517
8
 Atoms. Timestep: 1740
Li 3.58049 2.79119 7.08902
Li 3.11731 4.38691 4.85362
Li 5.60043 4.62196 6.3836
Li 5.07853 2.41108 4.77111
Li 5.53405 4.8692 3.60312
Li 7.15652 6.57214 5.11398
Li 4.30124 6.82483 5.28283
Li 5.63144 7.52458 2.89892
8
 Atoms. Timestep: 1760
Li 3.59774 2.84636 7.14696
Li 3.1668 4.37971 4.88463
Li 5.54866 4.56349 6.35092
Li 5.09444 2.27632 4.75556
Li 5.54544 4.85282 3.58781
Li 7.04399 6.56449 5.08962
Li 4.31921 6.88696 5.25186
Li 5.68372 7.63176 2.92884
8
 Atoms. Timestep: 1780
Li 3.57078 2.74574 7.1052
Li 3.10056 4.35967 4.86425
Li 5.56002 4.66209 6.35162
Li 5.05666 2.47195 4.79777
Li 5.53553 4.86398 3.54138
Li 7.18512 6.60958 5.14683
Li 4.38454 6.78058 5.26
Li 5.6068 7.5083 2.92915
8
 Atoms. Timestep: 1800
Li 3.59579 2.84398 7.10741
Li 3.14681 4.40108 4.86366
Li 5.5928 4.56625 6.39155
Li 5.10267 2.30711 4.74627
Li 5.54301 4.86554 3.63343
Li 7.08176 6.5466 5.07823
Li 4.26739 6.88412 5.27914
Li 5.66977 7.58722 2.89651
8
 Atoms. Timestep: 1820
Li 3.58301 2.79545 7.1464
Li 3.14712 4.35363 4.88527
Li 5.53197 4.62072 6.32182
Li 5.06659 2.3658 4.78494
Li 5.53776 4.84953 3.53553
Li 7.09667 6.5999 5.13058
Li 4.38708 6.82772 5.24178
Li 5.64979 7.58914 2.94987
8
 Atoms. Timestep: 1840
Li 3.57837 2.76999 7.08817
Li 3.09732 4.38812 4.85256
Li 5.59383 4.62683 6.39308
Li 5.07736 2.43688 4.77644
Li 5.54015 4.87329 3.5915
Li 7.18149 6.58045 5.11831
Li 4.31127 6.81461 5.27839
Li 5.62021 7.51174 2.89774
8
 Atoms. Timestep: 1860
Li 3.59806 2.85805 7.13217
Li 3.17279 4.38212 4.88134
Li 5.55798 4.56652 6.35499
Li 5.09825 2.27313 4.74961
Li 5.54121 4.85259 3.60912
Li 7.03223 6.55747 5.08261
Li 4.31777 6.88982 5.26062
Li 5.6817 7.6222 2.92573
8
 Atoms. Timestep: 1880
Li 3.57256 2.74945 7.12814
Li 3.11031 4.35521 4.86939
Li 5.55249 4.65267 6.33699
Li 5.0522 2.45125 4.80167
Li 5.53533 4.85946 3.51911
Li 7.18051 6.61323 5.15404
Li 4.37661 6.7861 5.25168
Li 5.61998 7.53454 2.93518
8
 Atoms. Timestep: 1900
Li 3.59325 2.8269 7.08833
Li 3.12585 4.4044 4.85904
Li 5.59506 4.57869 6.40805
Li 5.10469 2.34177 4.74656
Li 5.54701 4.87316 3.64574
Li 7.10034 6.54791 5.07475
Li 4.28124 6.87156 5.28176
Li 5.65256 7.55752 2.89197
8
 Atoms. Timestep: 1920
Li 3.58501 2.81687 7.15124
Li 3.16854 4.35411 4.88685
Li 5.53553 4.61197 6.31342
Li 5.06866 2.33466 4.77983
Li 5.53111 4.84036 3.5393
Li 7.07545 6.59515 5.12911
Li 4.37405 6.84116 5.24704
Li 5.66165 7.60763 2.94942
8
 Atoms. Timestep: 1940
Li 3.57827 2.75509 7.10053
Li 3.08477 4.38343 4.8544
Li 5.58616 4.62835 6.38858
Li 5.0715 2.44967 4.78447
Li 5.54603 4.87964 3.5711
Li 7.19621 6.58769 5.12504
Li 4.31782 6.80563 5.26756
Li 5.61924 7.51241 2.90452
8
 Atoms. Timestep: 1960
Li 3.59689 2.85918 7.10846
Li 3.17085 4.38844 4.87694
Li 5.56514 4.57448 6.36954
Li 5.10464 2.28562 4.74206
Li 5.5376 4.85103 3.63735
Li 7.03161 6.55132 5.07421
Li 4.32141 6.88838 5.27161
Li 5.67186 7.60344 2.91602
8
 Atoms. Timestep: 1980
Li 3.57442 2.76226 7.15081
Li 3.12434 4.35089 4.87376
Li 5.5488 4.63964 6.32119
Li 5.04875 2.41995 4.8051
Li 5.53506 4.85459 3.49517
Li 7.16881 6.61663 5.16037
Li 4.36537 6.79705 5.2468
Li 5.63445 7.56089 2.943
8
 Atoms. Timestep: 2000
Li 3.59198 2.80681 7.07893
Li 3.10662 4.40356 4.85667
Li 5.59358 4.59191 6.41516
Li 5.10237 2.37717 4.74918
Li 5.5508 4.88165 3.65333
Li 7.11813 6.54907 5.07404
Li 4.29535 6.85456 5.2775
Li 5.64117 7.53718 2.89138
8
 Atoms. Timestep: 2020
Li 3.58545 2.83384 7.14205
Li 3.18263 4.36034 4.88624
Li 5.54059 4.60553 6.32066
Li 5.07607 2.31256 4.7715
Li 5.52512 4.8303 3.55105
Li 7.06208 6.59098 5.12409
Li 4.36384 6.85603 5.25902
Li 5.66421 7.61233 2.94159
8
 Atoms. Timestep: 2040
Li 3.57887 2.74937 7.12379
Li 3.08205 4.37464 4.85742
Li 5.57957 4.62628 6.36959
Li 5.06203 2.44835 4.79513
Li 5.55162 4.88645 3.54405
Li 7.19899 6.594 5.13381
Li 4.32091 6.79884 5.25422
Li 5.62596 7.52396 2.91819
8
 Atoms. Timestep: 2060
Li 3.5964 2.85146 7.08315
Li 3.1614 4.39467 4.87293
Li 5.56931 4.58498 6.39007
Li 5.11065 2.30986 4.73398
Li 5.53427 4.84949 3.66653
Li 7.04096 6.54614 5.06628
Li 4.32681 6.88238 5.27975
Li 5.66021 7.58292 2.90352
8
 Atoms. Timestep: 2080
Li 3.57445 2.77868 7.16495
Li 3.14001 4.35087 4.8769
Li 5.54825 4.62687 6.31085
Li 5.04949 2.38461 4.80654
Li 5.53534 4.8499 3.47674
Li 7.15276 6.61892 5.16335
Li 4.35541 6.81307 5.24879
Li 5.6443 7.57897 2.94808
8
 Atoms. Timestep: 2100
Li 3.59244 2.78988 7.08391
Li 3.09299 4.39672 4.85578
Li 5.59022 4.60221 6.40774
Li 5.09408 2.40689 4.75553
Li 5.55399 4.88958 3.65161
Li 7.13214 6.55104 5.07784
Li 4.30595 6.83481 5.26643
Li 5.6382 7.53078 2.89736
8
 Atoms. Timestep: 2120
Li 3.58542 2.84287 7.12037
Li 3.18653 4.3708 4.88477
Li 5.54554 4.60307 6.34412
Li 5.08785 2.30173 4.75968
Li 5.52002 4.82219 3.57077
Li 7.0577 6.58632 5.11531
Li 4.35738 6.8702 5.274
Li 5.65956 7.60472 2.92717
8
 Atoms. Timestep: 2140
Li 3.57809 2.75176 7.15095
Li 3.08992 4.36592 4.86044
Li 5.57473 4.62144 6.34051
Li 5.05208 2.43563 4.80747
Li 5.55687 4.89149 3.5153
Li 7.19103 6.59958 5.14318
Li 4.32239 6.79628 5.24361
Li 5.6349 7.5398 2.93472
8
 Atoms. Timestep: 2160
Li 3.59829 2.83977 7.06487
Li 3.14623 4.39645 4.86971
Li 5.57138 4.59502 6.4098
Li 5.11276 2.33919 4.7271
Li 5.53149 4.84922 3.68939
Li 7.05717 6.54241 5.06101
Li 4.33024 6.87142 5.28096
Li 5.65243 7.56841 2.89334
8
 Atoms. Timestep: 2180
Li 3.5723 2.7928 7.16484
Li 3.15415 4.35746 4.87914
Li 5.54917 4.61794 6.31144
Li 5.05648 2.35208 4.80427
Li 5.53544 4.84629 3.47017
Li 7.13563 6.61883 5.16123
Li 4.35006 6.83249 5.25815
Li 5.64677 7.584 2.94696
8
 Atoms. Timestep: 2200
Li 3.5934 2.77982 7.10277
Li 3.0879 4.38505 4.85545
Li 5.58664 4.60702 6.38502
Li 5.08058 2.42692 4.76639
Li 5.55714 4.89493 3.63856
Li 7.14083 6.55509 5.08649
Li 4.31163 6.81565 5.25177
Li 5.64189 7.53742 2.90975
8
 Atoms. Timestep: 2220
Li 3.58692 2.84449 7.09264
Li 3.17933 4.38153 4.88318
Li 5.54992 4.60489 6.37939
Li 5.10084 2.30111 4.74494
Li 5.51568 4.81869 3.59566
Li 7.06116 6.58025 5.10391
Li 4.35344 6.88017 5.28664
Li 5.65272 7.59078 2.90983
8
 Atoms. Timestep: 2240
Li 3.57437 2.75796 7.173
Li 3.1068 4.36191 4.86314
Li 5.57082 4.61561 6.309
Li 5.04576 2.41699 4.81962
Li 5.5609 4.89284 3.49136
Li 7.17585 6.60438 5.15118
Li 4.32494 6.79993 5.24014
Li 5.64055 7.55228 2.94875
8
 Atoms. Timestep: 2260
Li 3.60272 2.82965 7.0603
Li 3.12843 4.39127 4.86698
Li 5.57308 4.60197 6.42216
Li 5.10842 2.36631 4.72343
Li 5.53061 4.85074 3.69956
Li 7.07616 6.54106 5.06008
Li 4.32926 6.85613 5.27396
Li 5.65132 7.56477 2.88974
8
 Atoms. Timestep: 2280
Li 3.56953 2.80111 7.14966
Li 3.16381 4.36971 4.88079
Li 5.55007 4.61489 6.32526
Li 5.06935 2.32772 4.79707
Li 5.53357 4.8447 3.47893
Li 7.1204 6.61521 5.15365
Li 4.35005 6.85195 5.27212
Li 5.64322 7.57661 2.93872
8
 Atoms. Timestep: 2300
Li 3.59253 2.77631 7.12991
Li 3.09233 4.37244 4.85537
Li 5.58345 4.60592 6.35083
Li 5.06515 2.43646 4.78139
Li 5.56112 4.89578 3.61554
Li 7.14427 6.56205 5.09889
Li 4.31364 6.80158 5.23868
Li 5.64753 7.55136 2.9256
8
 Atoms. Timestep: 2320
Li 3.5917 2.84261 7.06779
Li 3.16262 4.38793 4.88141
Li 5.55439 4.60979 6.41855
Li 5.11065 2.30718 4.72887
Li 5.51229 4.82096 3.62091
Li 7.06977 6.5728 5.09194
Li 4.34962 6.88233 5.29203
Li 5.64895 7.57829 2.89469
8
 Atoms. Timestep: 2340
Li 3.56774 2.7629 7.18238
Li 3.12889 4.36539 4.86577
Li 5.56644 4.6109 6.28336
Li 5.04633 2.39873 4.82922
Li 5.56205 4.88991 3.4781
Li 7.15798 6.60773 5.15607
Li 4.33051 6.81039 5.2456
Li 5.64006 7.55594 2.95571
8
 Atoms. Timestep: 2360
Li 3.60783 2.8244 7.07146
Li 3.11176 4.37994 4.86442
Li 5.57584 4.60452 6.42293
Li 5.09742 2.38541 4.72455
Li 5.53352 4.85347 3.69359
Li 7.0941 6.54313 5.06411
Li 4.32382 6.83893 5.26082
Li 5.6557 7.5721 2.89432
8
 Atoms. Timestep: 2380
Li 3.56893 2.80415 7.12385
Li 3.16703 4.3835 4.88182
Li 5.55046 4.61757 6.35047
Li 5.0851 2.31444 4.7847
Li 5.52805 4.84554 3.50248
Li 7.10897 6.6076 5.14169
Li 4.35342 6.86685 5.28573
Li 5.63804 7.56225 2.92547
8
 Atoms. Timestep: 2400
Li 3.58767 2.77548 7.15679
Li 3.10482 4.36386 4.85588
Li 5.58023 4.60063 6.31243
Li 5.05251 2.43729 4.79895
Li 5.56629 4.89168 3.58667
Li 7.14369 6.57151 5.11291
Li 4.3148 6.79686 5.23221
Li 5.64998 7.56459 2.94036
8
 Atoms. Timestep: 2420
Li 3.60003 2.84222 7.05381
Li 3.14042 4.38692 4.87909
Li 5.55996 4.61567 6.45266
Li 5.11347 2.31555 4.71375
Li 5.51072 4.82796 3.64126
Li 7.08033 6.5653 5.08168
Li 4.34391 6.87467 5.28771
Li 5.65116 7.5736 2.88625
8
 Atoms. Timestep: 2440
Li 3.56017 2.76352 7.17594
Li 3.15097 4.37566 4.86858
Li 5.56076 4.6087 6.26982
Li 5.05467 2.38608 4.83415
Li 5.55856 4.88392 3.4788
Li 7.14141 6.60847 5.15686
Li 4.33912 6.82603 5.25841
Li 5.63434 7.54952 2.95363
8
 Atoms. Timestep: 2460
Li 3.61043 2.82343 7.095
Li 3.09981 4.36646 4.86215
Li 5.57987 4.60325 6.41155
Li 5.08227 2.39355 4.73121
Li 5.54157 4.85613 3.67192
Li 7.10845 6.54918 5.07253
Li 4.3162 6.8239 5.24635
Li 5.6614 7.58599 2.90549
8
 Atoms. Timestep: 2480
Li 3.57319 2.80597 7.09539
Li 3.16352 4.39338 4.8819
Li 5.55084 4.62366 6.38164
Li 5.09898 2.3123 4.76819
Li 5.51869 4.84841 3.53664
Li 7.10177 6.59681 5.12737
Li 4.35681 6.87263 5.29368
Li 5.6362 7.54874 2.9114
8
 Atoms. Timestep: 2500
Li 3.57816 2.7722 7.17522
Li 3.12173 4.363 4.85758
Li 5.57614 4.59416 6.27826
Li 5.04707 2.43263 4.81671
Li 5.57184 4.88425 3.55728
Li 7.14095 6.58175 5.1262
Li 4.31778 6.80384 5.23529
Li 5.64632 7.57008 2.94967
8
 Atoms. Timestep: 2520
Li 3.61018 2.84651 7.05467
Li 3.11846 4.37853 4.87597
Li 5.5669 4.62041 6.47437
Li 5.10751 2.32219 4.70214
Li 5.51243 4.83695 3.65277
Li 7.09007 6.55983 5.07481
Li 4.33591 6.85819 5.27483
Li 5.65854 7.57928 2.88665
8
 Atoms. Timestep: 2540
Li 3.5549 2.76041 7.15617
Li 3.16767 4.3887 4.87143
Li 5.55427 4.60911 6.27086
Li 5.06878 2.38178 4.83308
Li 5.54956 4.87733 3.49322
Li 7.12866 6.60564 5.15356
Li 4.34872 6.84291 5.27403
Li 5.62744 7.53602 2.94385
8
 Atoms. Timestep: 2560
Li 3.60747 2.82259 7.12346
Li 3.09507 4.35635 4.86075
Li 5.58392 4.60016 6.39096
Li 5.06743 2.39134 4.74311
Li 5.5546 4.85757 3.63846
Li 7.11823 6.5586 5.08392
Li 4.30977 6.81575 5.23629
Li 5.66349 7.59954 2.91925
8
 Atoms. Timestep: 2580
Li 3.58342 2.81185 7.07273
Li 3.15502 4.39502 4.8806
Li 5.55216 4.62973 6.41166
Li 5.10623 2.31834 4.74975
Li 5.50729 4.85231 3.57518
Li 7.09801 6.58487 5.11285
Li 4.35722 6.86666 5.2924
Li 5.64065 7.54312 2.90104
8
 Atoms. Timestep: 2600
Li 3.56542 2.76303 7.18053
Li 3.13793 4.3705 4.86081
Li 5.57083 4.58952 6.25522
Li 5.05123 2.42634 4.8319
Li 5.57581 4.87645 3.53219
Li 7.13786 6.59028 5.13704
Li 4.32364 6.82149 5.24744
Li 5.63728 7.5643 2.95107
8
 Atoms. Timestep: 2620
Li 3.6189 2.85495 7.06889
Li 3.10288 4.36603 4.87234
Li 5.5741 4.62263 6.47999
Li 5.09396 2.32464 4.69643
Li 5.51874 4.84473 3.65385
Li 7.09721 6.55814 5.07189
Li 4.32703 6.8373 5.25787
Li 5.66718 7.59347 2.89494
8