9
 Atoms. Timestep: 100
Li -1.12352 -1.09202 1.90852
Li -2.81857 0.07072 0.135206
Li -0.348923 -0.673856 -0.691756
Li 0.691766 -2.88116 0.632899
Li 2.19215 0.00912346 -1.28882
Li 1.91602 2.15576 0.366565
Li -0.615851 1.42572 1.01315
Li 0.122509 1.8117 -1.59552
Li 1.47441 -0.302178 1.386
9
 Atoms. Timestep: 150
Li -1.20033 -0.926405 2.08844
Li -2.96971 -0.171498 0.231501
Li -0.360106 -0.449114 -0.729801
Li 0.748077 -2.60743 0.506511
Li 2.16777 -0.46289 -1.62852
Li 1.76858 1.65936 0.260257
Li -0.887824 1.59633 0.937192
Li 0.302692 1.86409 -2.00386
Li 1.2813 -0.401735 1.79121
9
 Atoms. Timestep: 200
Li -1.63787 -0.604077 2.32585
Li -3.12099 -0.565628 0.330955
Li -0.722925 -0.103643 -0.877194
Li 0.859842 -2.23728 0.229763
Li 1.96281 -1.18149 -2.15113
Li 1.53748 0.693586 -0.0935656
Li -1.24357 1.76951 0.804902
Li 0.820155 1.75528 -2.45323
Li 1.18703 -0.22504 2.55555
9
 Atoms. Timestep: 250
Li -1.81967 0.200929 2.6134
Li -3.21654 -1.13812 0.402465
Li -1.49045 0.113451 -1.74502
Li 0.640627 -2.53026 0.217679
Li 1.29856 -1.68996 -2.66757
Li 1.61844 0.198455 -0.152554
Li -1.2955 1.6531 0.554376
Li 1.73122 1.19688 -2.35018
Li 0.807087 0.391578 2.91506
9
 Atoms. Timestep: 300
Li -2.48937 0.955765 2.517
Li -2.56241 -1.6378 1.01421
Li -1.43597 0.95781 -2.57079
Li 0.171447 -3.42354 0.354785
Li 0.501898 -1.76826 -2.88006
Li 0.667427 -0.622919 0.333595
Li -0.807695 1.30787 0.0553714
Li 2.71405 0.68233 -2.40273
Li 0.449783 1.24048 2.67824
9
 Atoms. Timestep: 350
Li -2.98497 1.64895 1.65428
Li -1.90841 -1.97124 2.2681
Li -0.866988 2.07044 -3.10861
Li -0.112719 -4.6161 0.448247
Li -0.081291 -1.42651 -2.67133
Li 0.0928878 -1.48143 0.0455502
Li -0.720009 1.18728 -0.259405
Li 3.37709 0.048339 -1.7307
Li 0.0119262 1.96629 2.19391
9
 Atoms. Timestep: 400
Li -3.01555 2.07769 0.408802
Li -1.86016 -2.17818 3.8316
Li 0.0214554 3.24129 -2.62293
Li -0.0582379 -5.5153 0.528985
Li -0.337965 -0.737969 -3.15424
Li 0.0124804 -1.84157 -0.19576
Li -0.756287 0.705312 -1.01323
Li 3.54111 -0.422692 -0.565868
Li -0.345655 2.35788 1.8771
9
 Atoms. Timestep: 450
Li -2.63886 2.16231 -0.705901
Li -1.58656 -2.09043 4.68248
Li 0.829038 4.04887 -1.33561
Li 0.398239 -5.13018 0.563392
Li -0.0794014 -0.255046 -4.05609
Li -0.523876 -2.45291 -0.219231
Li -0.727811 0.431665 -1.20053
Li 3.18117 -0.550347 0.675149
Li -0.600865 2.21709 1.36933
9
 Atoms. Timestep: 500
Li -2.29382 2.08926 -1.22556
Li -1.19877 -1.75188 4.56834
Li 1.23077 4.24749 0.274082
Li 1.14735 -3.68553 0.569891
Li 0.579656 -0.102759 -4.31712
Li -1.47895 -2.74767 -0.580885
Li -0.301166 -0.154404 -1.04286
Li 2.44975 -0.281512 1.55198
Li -0.538237 1.65819 0.844711
9
 Atoms. Timestep: 550
Li -1.97438 1.64768 -1.09891
Li -0.812707 -1.26945 3.5157
Li 1.09443 3.75778 1.5995
Li 1.90163 -1.72081 0.528727
Li 1.3741 -0.312135 -3.77502
Li -2.43882 -2.6296 -1.10122
Li 0.141793 -0.945021 -0.962901
Li 1.68334 0.243279 1.81725
Li -0.188766 1.28278 0.884674
9
 Atoms. Timestep: 600
Li -2.34595 0.905387 -1.08864
Li -0.452626 -0.832595 1.82025
Li 0.776703 3.16107 2.36189
Li 2.96769 -1.14736 0.190389
Li 2.03495 -0.828225 -2.63041
Li -2.97268 -2.18712 -1.55673
Li -0.267372 -1.09325 -1.17638
Li 2.26289 1.13452 2.70728
Li -0.597548 1.35585 1.18435
9
 Atoms. Timestep: 650
Li -3.0648 0.533256 -0.648862
Li -0.108096 -2.24063 1.01107
Li 0.57613 3.64 2.59433
Li 3.53673 -0.826245 0.539183
Li 2.11386 -1.48555 -1.97271
Li -3.04554 -1.92805 -1.89649
Li -0.660321 -0.713345 -1.39967
Li 2.97726 1.41099 2.56244
Li -1.05446 1.98835 0.935274
9
 Atoms. Timestep: 700
Li -3.58934 1.02629 0.510988
Li -0.0502445 -3.35134 0.854753
Li 0.334733 3.85219 1.83466
Li 3.4934 -1.11651 1.33331
Li 1.46119 -2.048 -1.93684
Li -2.8036 -2.27738 -2.10714
Li -0.603485 -0.0111128 -1.62702
Li 3.32065 1.6871 1.49939
Li -1.13045 2.0632 0.820935
9
 Atoms. Timestep: 750
Li -3.83034 1.43416 1.66343
Li -0.349822 -3.63756 0.895774
Li 0.452042 4.0969 0.579565
Li 2.64406 -2.12483 1.59066
Li 0.573877 -2.24932 -1.89211
Li -2.03607 -2.41947 -1.86249
Li -0.494462 0.495568 -1.45727
Li 3.15658 2.03081 0.00391972
Li -0.929997 1.3732 0.855654
9
 Atoms. Timestep: 800
Li -3.54449 1.71311 2.4453
Li -1.06891 -3.01827 1.04464
Li 0.451633 3.68749 -1.04264
Li 1.38376 -3.03811 1.40321
Li 1.09909 -1.94166 -1.91443
Li -2.3111 -2.45773 -1.14637
Li -0.187172 0.385883 -1.55807
Li 2.54606 1.89918 -1.54165
Li -0.41313 0.955758 1.89213
9
 Atoms. Timestep: 850
Li -2.76287 1.75423 2.60751
Li -2.29964 -1.97721 2.07746
Li 0.0304183 3.0057 -2.40363
Li 0.939638 -3.44826 0.945806
Li 2.09293 -1.48403 -1.99508
Li -3.09159 -2.17125 -1.18836
Li -0.0479835 0.327012 -1.07679
Li 2.04537 1.06635 -2.69844
Li 0.248421 0.583175 2.79593
9
 Atoms. Timestep: 900
Li -1.75558 1.46319 2.12555
Li -2.92066 -0.686794 3.23126
Li -0.617614 2.3003 -3.00683
Li 0.520914 -3.25071 0.259769
Li 2.76662 -1.73304 -1.76817
Li -3.43047 -1.76955 -1.38061
Li -0.0990016 0.153373 -0.318616
Li 1.83208 0.740504 -3.43646
Li 0.745752 0.363897 3.28572
9
 Atoms. Timestep: 950
Li -1.19786 1.39632 1.6202
Li -2.90861 0.339518 3.89051
Li -0.958949 1.59563 -2.69061
Li 0.368526 -2.59019 -0.444834
Li 2.75698 -2.059 -1.5472
Li -3.10139 -1.44063 -1.39719
Li 0.137898 -0.3553 -0.109648
Li 1.62167 0.696238 -3.12423
Li 0.922095 0.394426 3.1813
9
 Atoms. Timestep: 1000
Li -1.55919 1.71312 1.46508
Li -2.22319 0.802041 3.79226
Li -1.17225 1.27771 -1.7027
Li 0.281549 -3.59664 -0.994583
Li 2.42377 -1.82213 -1.75123
Li -2.12235 -1.25425 -1.24196
Li 0.423616 0.381479 0.0650153
Li 1.88516 0.564266 -2.08287
Li 0.797551 0.63536 2.53652
9
 Atoms. Timestep: 1050
Li -2.20726 1.96117 1.12095
Li -1.4729 0.349048 3.35697
Li -1.53135 1.85189 -1.46315
Li 0.255944 -3.99515 -1.00877
Li 1.84911 -1.96664 -2.07848
Li -1.01074 -1.60331 -1.08479
Li 0.399582 0.242928 -0.0687209
Li 2.6894 1.30264 -1.48883
Li 0.977494 1.36197 3.58534
9
 Atoms. Timestep: 1100
Li -2.99396 1.93751 1.60486
Li -1.29761 -0.782963 2.43849
Li -1.2168 2.59765 -1.9426
Li 0.912221 -4.28608 -0.433265
Li 1.11208 -1.74224 -2.45832
Li -1.33602 -2.23863 -1.43011
Li 0.829407 0.617633 -0.162983
Li 3.26131 1.82041 -0.492772
Li 1.60563 2.19448 4.34629
9
 Atoms. Timestep: 1150
Li -3.48021 1.54937 1.76008
Li -1.08283 -1.9538 1.20534
Li -0.430451 3.24075 -1.81278
Li 1.79216 -4.0241 0.421336
Li 0.64568 -1.22547 -2.75483
Li -2.15578 -2.44737 -1.48835
Li 0.605225 0.644517 -0.409528
Li 3.54387 1.94206 0.513844
Li 1.77435 2.61396 4.25148
9
 Atoms. Timestep: 1200
Li -3.57798 0.99829 1.55095
Li -0.694419 -2.82576 0.266132
Li 0.5297 3.5361 -1.18444
Li 2.33397 -3.00817 1.23229
Li 0.248101 -0.750146 -2.83169
Li -2.77823 -2.44378 -1.53236
Li 0.0435745 0.516394 -0.611339
Li 3.26313 1.58154 1.23019
Li 1.48864 2.50023 3.3371
9
 Atoms. Timestep: 1250
Li -3.24899 0.484484 1.03527
Li -0.187126 -3.04589 0.0685918
Li 1.28627 3.34489 -0.274319
Li 2.31611 -1.62272 1.69822
Li 0.114292 -0.722594 -3.07235
Li -3.08343 -2.23947 -1.61193
Li -0.644796 0.513532 -0.253934
Li 2.86411 0.714568 1.15742
Li 0.525342 2.07277 2.11871
9
 Atoms. Timestep: 1300
Li -3.24757 0.12151 0.653452
Li -0.0984487 -2.46641 0.39849
Li 1.59342 3.03145 0.438757
Li 1.38322 -1.78454 2.15409
Li 0.248208 -0.864449 -2.90327
Li -2.71772 -1.87822 -1.37356
Li -0.588362 -0.107013 -0.770124
Li 2.95799 0.964327 -0.174224
Li -0.746709 1.71695 1.69381
9
 Atoms. Timestep: 1350
Li -3.38473 0.097912 0.557706
Li -0.948426 -2.41614 0.92763
Li 0.942202 3.19391 0.787886
Li 0.958907 -1.9024 2.88639
Li 1.18598 -1.60454 -3.7941
Li -2.4205 -1.77094 -1.2448
Li -0.21896 0.379386 -0.863557
Li 3.12961 0.69804 -1.67436
Li -1.46952 1.39056 1.88224
9
 Atoms. Timestep: 1400
Li -3.30509 0.266561 0.361581
Li -1.79964 -2.34251 2.10222
Li -0.131638 3.18195 0.783511
Li 0.793564 -1.94682 2.93156
Li 2.18695 -2.19267 -4.31678
Li -2.41 -1.84209 -1.47493
Li 0.202609 1.18391 -0.674362
Li 2.84193 0.373828 -2.66891
Li -1.13046 1.03542 2.08097
9
 Atoms. Timestep: 1450
Li -2.84644 0.541217 0.212391
Li -2.63271 -1.75265 2.92824
Li -1.19682 3.73685 0.846741
Li 0.839089 -1.89064 2.19885
Li 2.84309 -2.31789 -4.114
Li -2.12412 -1.86326 -1.36517
Li 0.397496 0.719953 -0.839728
Li 2.24215 0.0655426 -2.83243
Li -0.149446 0.560533 2.17015
9
 Atoms. Timestep: 1500
Li -2.04393 0.945681 0.347191
Li -2.82581 -0.88968 3.24689
Li -1.84136 3.71739 0.419939
Li 0.970426 -2.21462 0.770585
Li 2.95078 -2.11548 -3.36953
Li -1.64398 -1.77377 -0.994175
Li -0.00366659 -0.00767293 -0.426838
Li 1.8374 -0.0408616 -2.3344
Li 0.694187 0.656166 2.01184
9
 Atoms. Timestep: 1550
Li -2.23308 1.23234 1.12719
Li -2.39137 -0.148513 3.00164
Li -1.81141 3.74503 -0.427418
Li 1.32059 -2.9931 -0.737806
Li 2.65822 -2.05385 -2.50569
Li -1.78875 -2.3874 -0.755794
Li 0.0131976 -0.0657377 0.157041
Li 2.0575 0.50007 -1.64806
Li 1.33699 1.15476 2.15052
9
 Atoms. Timestep: 1600
Li -2.45641 2.03946 0.732746
Li -1.56627 -0.638804 3.40331
Li -1.14709 3.66464 -1.3317
Li 0.803251 -4.12597 -0.858018
Li 2.6464 -1.18467 -2.57903
Li -1.84886 -2.92509 -0.588232
Li -0.497812 -0.0986723 0.586767
Li 2.61405 1.20899 -0.766195
Li 1.66516 1.73873 2.44094
9
 Atoms. Timestep: 1650
Li -2.55425 2.57356 0.230582
Li -0.583873 -1.35056 3.19897
Li -0.149826 3.14262 -1.84329
Li 0.304725 -4.58768 -0.412115
Li 2.20134 -0.152564 -2.60886
Li -1.78915 -3.00671 -0.505248
Li -0.895291 -0.079264 0.71667
Li 2.92447 1.59866 0.310887
Li 1.43602 1.99158 2.39358
9
 Atoms. Timestep: 1700
Li -2.41617 2.50356 -0.138472
Li 0.162168 -1.994 2.45256
Li 0.742884 2.54831 -1.70635
Li 0.352843 -4.32937 0.325462
Li 1.46116 0.425766 -2.49701
Li -1.902 -2.44286 -0.513209
Li -1.06945 0.0543986 0.441963
Li 3.15107 1.53768 0.779363
Li 0.502642 1.88632 2.39567
9
 Atoms. Timestep: 1750
Li -2.26901 2.15445 -0.244513
Li 0.260651 -1.3383 2.0179
Li 0.756468 3.21444 -0.540401
Li 0.647818 -4.11718 0.38542
Li 1.10946 -0.841289 -2.68339
Li -1.88911 -1.99085 -0.652505
Li -0.570046 0.149703 -0.00242817
Li 2.93538 1.16169 0.754396
Li -0.516655 1.45301 2.16931
9
 Atoms. Timestep: 1800
Li -2.31787 1.89981 -0.117155
Li 0.156407 -0.635012 2.23786
Li 0.37198 3.3707 0.748988
Li 1.07035 -3.90677 -0.211553
Li 0.668045 -2.17785 -2.57606
Li -1.83085 -2.02898 -0.975792
Li 0.511911 0.128723 -1.0941
Li 2.29796 0.657381 0.401475
Li -1.40952 1.91145 2.17838
9
 Atoms. Timestep: 1850
Li -2.46224 1.35716 -0.361334
Li -0.0930905 -0.643131 2.13731
Li 0.143683 3.23132 1.26829
Li 1.58819 -3.09498 -0.128299
Li 0.2444 -3.02486 -2.88285
Li -1.54825 -1.93446 -1.21431
Li 0.264895 -0.107641 -2.4508
Li 2.26005 0.411357 0.552216
Li -1.92744 2.33123 2.99439
9
 Atoms. Timestep: 1900
Li -2.39038 0.662976 -0.148548
Li -0.676067 -0.734602 1.70809
Li 0.0509255 2.84815 0.946014
Li 1.94063 -2.0523 0.524495
Li 0.170122 -3.04669 -3.51902
Li -1.40085 -1.71656 -1.0865
Li -0.204139 -0.372481 -2.99074
Li 2.00306 0.329383 0.457699
Li -1.82033 2.0807 3.50788
9
 Atoms. Timestep: 1950
Li -2.61285 0.685262 0.093733
Li -0.850229 -1.18265 1.70283
Li -0.533836 2.39188 0.234325
Li 1.74601 -2.12592 1.10495
Li 0.411528 -2.5144 -3.66989
Li -1.31511 -2.03277 -0.858332
Li -0.578109 -0.130423 -2.7383
Li 1.986 1.29552 0.0921628
Li -0.864525 1.42413 3.2543
9
 Atoms. Timestep: 2000
Li -3.37551 0.801942 0.294472
Li -1.03335 -1.70381 2.30446
Li -1.13212 2.63781 -0.593749
Li 1.47964 -2.1325 1.2859
Li 0.86017 -1.6564 -3.29462
Li -1.2601 -2.47884 -0.898184
Li -0.890029 0.388175 -1.54305
Li 2.52047 1.50028 -0.436226
Li 0.534588 0.662297 2.30027
9
 Atoms. Timestep: 2050
Li -3.80419 0.768762 0.602387
Li -1.63463 -2.04315 2.61898
Li -1.13302 3.63364 -1.10839
Li 1.28511 -2.30553 0.933829
Li 1.24285 -0.570338 -2.39524
Li -1.18248 -2.5768 -0.872922
Li -0.873796 -0.0170443 -0.0796527
Li 2.77095 1.32602 -0.882626
Li 1.83027 0.330856 1.11819
9
 Atoms. Timestep: 2100
Li -3.56147 0.799609 0.919568
Li -1.96485 -2.07883 2.43296
Li -0.762458 4.25199 -1.37919
Li 0.936614 -2.65362 0.351367
Li 0.949908 -0.199437 -1.41257
Li -1.29613 -2.46674 -0.884881
Li -0.505972 -0.388481 1.29311
Li 3.63097 1.74037 -1.74958
Li 2.07783 0.205361 1.01224
9
 Atoms. Timestep: 2150
Li -2.75532 0.79809 1.19882
Li -2.35614 -2.22724 2.11931
Li -0.143833 4.3002 -1.36161
Li 1.1306 -2.61696 0.202701
Li 0.207236 -0.487003 -0.913222
Li -1.96081 -2.0104 -1.04329
Li -0.328842 -0.395415 1.71534
Li 4.29226 2.04496 -2.02716
Li 2.28902 0.37939 1.25423
9
 Atoms. Timestep: 2200
Li -2.28884 1.00204 1.15049
Li -2.42509 -2.04112 1.58307
Li 0.508826 3.77465 -1.06681
Li 1.31652 -2.54176 0.433764
Li -0.0861495 -0.401191 -1.22523
Li -2.67304 -1.64725 -0.927047
Li 0.0468284 -0.695734 1.60666
Li 4.23172 1.84431 -1.67738
Li 2.19152 0.788137 1.55722
9
 Atoms. Timestep: 2250
Li -2.14077 1.16743 0.763902
Li -2.16329 -1.65656 1.61344
Li 0.998674 2.78489 -0.571545
Li 1.78604 -2.77886 0.230332
Li 0.116933 -0.521948 -1.67916
Li -3.07281 -1.28487 -1.22438
Li 0.00947627 -0.440179 1.19606
Li 3.43816 1.2355 -0.807657
Li 1.73491 1.50061 1.83943
9
 Atoms. Timestep: 2300
Li -2.17369 1.19151 0.253178
Li -2.20696 -1.38457 1.7545
Li 0.504033 2.28051 -0.591979
Li 2.02031 -2.70731 -0.0567855
Li 0.630364 -0.861087 -2.16866
Li -2.77832 -1.03718 -1.35965
Li 0.247024 -0.0563468 0.294641
Li 2.68511 -0.000858526 0.330757
Li 1.15074 2.16541 2.49809
9
 Atoms. Timestep: 2350
Li -2.4247 1.33441 -0.023781
Li -1.97124 -0.961304 1.77491
Li -0.548855 2.9599 -1.18781
Li 1.58581 -2.7042 -0.460207
Li 1.3318 -1.34676 -2.79349
Li -2.11941 -1.24793 -1.38423
Li -0.132678 -0.624266 -0.0722162
Li 3.06923 -0.721389 1.44695
Li 0.366755 2.29173 3.05816
9
 Atoms. Timestep: 2400
Li -2.64431 1.31732 0.104201
Li -1.78083 -0.643293 1.92999
Li -1.36818 3.44623 -1.52448
Li 1.01617 -3.12116 -0.672719
Li 1.83453 -1.67 -3.16552
Li -2.2031 -2.0446 -1.8526
Li 0.667371 -0.167263 -0.165683
Li 3.17435 -0.65258 2.00593
Li -0.439934 1.91967 3.11709
9
 Atoms. Timestep: 2450
Li -2.64191 1.23409 0.408396
Li -1.3683 -0.895879 1.76951
Li -1.74594 3.55921 -1.45165
Li 0.547857 -3.19142 -0.605503
Li 1.99145 -1.81972 -3.09646
Li -1.94816 -2.74952 -1.89274
Li 0.892612 0.465574 -0.205389
Li 2.8319 -0.151876 1.6643
Li -0.882366 1.55087 2.8116
9
 Atoms. Timestep: 2500
Li -2.44653 1.1804 0.698535
Li -1.06739 -1.88748 1.27186
Li -1.55528 3.22446 -0.961328
Li 0.595001 -2.68951 -0.220309
Li 1.7374 -1.77927 -2.60109
Li -1.7346 -3.15979 -1.69273
Li 0.120574 0.904678 -0.481875
Li 2.56852 0.492715 0.926932
Li -0.610897 1.6686 2.41661
9
 Atoms. Timestep: 2550
Li -2.75707 0.888364 0.874881
Li -1.63049 -1.99104 1.56569
Li -1.14075 3.41488 -0.314737
Li 1.73087 -2.49682 0.33267
Li 1.31002 -1.25365 -2.52125
Li -1.6348 -3.09048 -1.28888
Li -0.52468 0.194269 -0.936417
Li 2.32833 1.03527 0.00765876
Li 0.376865 1.55271 1.92879
9
 Atoms. Timestep: 2600
Li -2.94428 0.62153 1.09865
Li -1.97996 -1.69375 1.73405
Li -0.51082 3.6305 0.322235
Li 2.39929 -2.14447 1.2088
Li 1.20703 -0.647641 -2.94677
Li -1.58115 -2.99581 -0.661978
Li -0.740336 -0.466567 -0.70145
Li 1.97508 1.24312 -1.3003
Li 1.04513 1.24358 1.41974
9
 Atoms. Timestep: 2650
Li -2.98229 0.949989 0.995551
Li -1.7855 -1.60802 1.96115
Li 0.329791 3.29137 0.666007
Li 2.49283 -1.60938 1.72748
Li 1.09526 -0.784894 -3.65853
Li -1.93971 -3.70355 -0.147901
Li -0.681297 0.333763 -0.0979283
Li 1.83938 1.60763 -1.91711
Li 1.39447 0.904339 1.22137
9
 Atoms. Timestep: 2700
Li -3.1739 1.50688 0.970022
Li -1.28364 -1.44903 1.96807
Li 0.800902 2.94877 0.367104
Li 2.19347 -1.74767 1.86862
Li 0.920139 -1.17827 -3.98281
Li -2.18221 -3.69001 0.156138
Li -0.645908 0.660204 -0.203599
Li 1.75403 1.72463 -1.57313
Li 2.05428 1.05178 1.61541
9
 Atoms. Timestep: 2750
Li -3.09677 1.87411 0.921988
Li -0.710187 -1.15863 1.7235
Li 0.335892 3.45742 0.10893
Li 1.54734 -2.40633 1.58179
Li 0.835035 -1.49184 -3.69339
Li -2.20268 -2.99416 0.148447
Li -0.332066 0.627638 -0.254115
Li 2.13823 0.93062 -1.27052
Li 2.15733 1.1439 2.07105
9
 Atoms. Timestep: 2800
Li -2.57703 1.9 0.758821
Li -0.711577 -0.807924 1.88679
Li -0.285109 3.55016 -0.23234
Li 1.10626 -3.03939 0.817048
Li 0.873132 -1.61546 -2.86406
Li -1.98881 -1.93376 -0.256227
Li -0.149278 0.671078 -0.45539
Li 2.69775 -0.0288049 -0.678588
Li 1.43299 1.1057 2.18468
9
 Atoms. Timestep: 2850
Li -1.96539 1.37935 0.700769
Li -1.20704 -0.890146 2.21608
Li -0.690029 3.3181 -0.719063
Li 0.668014 -3.17904 -0.11681
Li 0.998675 -1.45858 -1.69481
Li -1.62663 -0.989211 -0.957888
Li 0.202732 0.68175 -0.71791
Li 2.83083 -0.791597 0.103415
Li 0.506551 1.28069 1.90706
9
 Atoms. Timestep: 2900
Li -2.19832 0.600071 0.628901
Li -1.94128 -1.593 2.24933
Li -0.759267 3.25095 -1.25499
Li 0.155691 -3.55467 -0.00445199
Li 1.45197 -1.1323 -2.05824
Li -1.641 -0.94706 -1.536
Li 1.01265 1.32766 -0.674809
Li 2.58462 -0.996744 0.870683
Li 0.201219 1.83313 1.95017
9
 Atoms. Timestep: 2950
Li -2.58013 0.311372 0.380151
Li -2.2793 -2.35014 2.13365
Li -0.816663 3.15292 -1.47373
Li -0.0529604 -3.18643 0.286567
Li 1.68431 -0.965505 -2.49016
Li -1.38813 -1.35219 -1.85998
Li 1.45137 1.18645 -0.538981
Li 2.03008 -0.587896 1.10593
Li 0.0835607 2.09376 2.15268
9
 Atoms. Timestep: 3000
Li -2.6761 0.197732 0.253357
Li -2.21899 -2.63579 1.78124
Li -0.679131 2.8552 -1.29545
Li 0.147682 -2.19248 0.582308
Li 1.54363 -0.830831 -2.64936
Li -1.06701 -1.90884 -1.71616
Li 1.00492 1.14009 -0.905555
Li 1.60439 -0.405013 1.40253
Li 0.0984594 1.83469 2.00132
9
 Atoms. Timestep: 3050
Li -2.36467 0.251734 0.28041
Li -2.04323 -2.35334 1.44336
Li -1.11521 3.1334 -0.95088
Li 0.471652 -1.78685 0.642465
Li 1.2147 -1.21095 -2.93169
Li -1.10388 -2.27927 -1.58444
Li 0.559131 0.380681 -0.587777
Li 2.52131 0.300834 1.57391
Li -0.278694 1.68682 1.63561
9
 Atoms. Timestep: 3100
Li -2.55487 0.457928 0.248567
Li -1.70957 -1.83587 1.26487
Li -1.16122 3.03399 -0.434732
Li 1.2137 -2.12264 1.03761
Li 0.809037 -1.77143 -3.06244
Li -1.3638 -2.32992 -1.25866
Li 0.0193104 0.28793 -0.858282
Li 3.64208 0.866787 1.12249
Li -0.496946 1.89129 1.80836
9
 Atoms. Timestep: 3150
Li -3.36738 1.05354 0.164102
Li -1.03418 -1.34147 1.74066
Li -0.928949 2.72617 -0.280758
Li 1.74509 -2.40287 1.15529
Li 0.463484 -2.0425 -2.79662
Li -1.593 -2.15262 -1.07941
Li -0.175184 0.0837644 -1.24335
Li 4.15783 1.28937 0.169615
Li -0.0880786 1.78195 2.54357
9
 Atoms. Timestep: 3200
Li -3.53982 1.62272 0.261036
Li -0.347137 -0.770713 2.05577
Li -0.477302 2.35749 -0.035768
Li 1.84754 -2.4166 0.948285
Li 0.497738 -2.09549 -2.49995
Li -2.05544 -2.09079 -0.71097
Li -0.384592 0.0323097 -1.10811
Li 3.99176 1.45607 -0.916993
Li 0.407774 1.40374 2.87155
9
 Atoms. Timestep: 3250
Li -3.09472 1.97219 0.493011
Li -0.313018 -1.09624 1.7626
Li -0.0199168 2.49911 0.454333
Li 1.60309 -2.21084 0.426288
Li 0.807199 -2.08476 -2.18742
Li -2.36372 -2.11275 -0.354812
Li -0.488452 -0.157792 -0.629134
Li 3.20869 1.31724 -1.75679
Li 1.08746 1.69414 2.97093
9
 Atoms. Timestep: 3300
Li -2.2146 1.93477 0.780502
Li -0.932383 -1.46732 2.0733
Li 0.291419 2.57553 0.525802
Li 1.54369 -2.02166 0.345692
Li 1.038 -1.77562 -2.62355
Li -2.34185 -2.13836 -0.148129
Li -0.422255 0.179368 -0.422761
Li 2.01961 0.878228 -2.02314
Li 1.49936 1.69133 2.70643
9
 Atoms. Timestep: 3350
Li -1.85261 1.58505 1.26385
Li -1.45335 -1.67307 2.41283
Li 0.756286 2.92191 -0.103193
Li 1.23374 -1.66397 0.684563
Li 1.04393 -1.50809 -3.41834
Li -2.00987 -2.05741 -0.374184
Li -0.596978 -0.124679 -0.0879382
Li 1.40022 0.827097 -1.76922
Li 1.5727 1.29347 2.35573
9
 Atoms. Timestep: 3400
Li -2.11977 1.58713 2.11461
Li -1.68861 -1.54867 2.3311
Li 0.844522 3.33536 -0.568571
Li 1.30443 -1.78999 1.16218
Li 0.991652 -1.41072 -3.87128
Li -2.08773 -2.7724 -0.941093
Li -0.719413 0.168347 0.0980359
Li 1.82617 0.793002 -1.43635
Li 1.05276 0.781725 1.62948
9
 Atoms. Timestep: 3450
Li -2.38097 1.35774 2.50659
Li -1.55879 -1.14224 1.81679
Li 0.5113 3.55412 -0.752014
Li 1.27753 -2.18157 1.35499
Li 0.998225 -1.14828 -3.67914
Li -1.99082 -3.18479 -1.40082
Li -1.37706 0.2119 -0.659122
Li 2.2685 0.295484 -0.71761
Li 0.899544 0.880894 1.55949
9
 Atoms. Timestep: 3500
Li -2.57223 1.14546 2.21648
Li -1.09999 -0.961197 1.16086
Li 0.00695086 3.24739 -0.792372
Li 1.07755 -2.26473 1.13357
Li 1.03617 -0.85052 -2.89963
Li -1.72226 -3.03994 -1.63326
Li -1.579 0.121482 -1.27777
Li 2.53695 -0.176961 0.0738925
Li 0.39439 1.04588 1.6797
9
 Atoms. Timestep: 3550
Li -2.64922 1.05045 1.37435
Li -1.3146 -1.18435 0.72912
Li -0.528714 2.51008 -0.652418
Li 1.21564 -2.60299 0.635544
Li 1.10393 -0.689931 -1.71774
Li -1.32809 -2.38219 -1.54664
Li -1.28729 0.152439 -1.66116
Li 2.62993 -0.17627 0.597487
Li 0.0420964 1.46074 1.777
9
 Atoms. Timestep: 3600
Li -2.75746 1.10005 0.257531
Li -1.29074 -1.29864 1.1686
Li -0.656588 2.63174 -0.324354
Li 1.13855 -3.08099 0.196389
Li 1.30578 -0.739233 -1.12514
Li -0.857791 -2.36254 -1.61732
Li -1.42684 0.206822 -2.00301
Li 2.67969 0.423929 1.06649
Li -0.0139546 1.41361 2.06951
9
 Atoms. Timestep: 3650
Li -2.97242 1.07852 -0.342638
Li -0.994424 -1.25673 1.66581
Li -0.288918 3.24326 -0.225467
Li 0.998065 -3.51169 0.271193
Li 1.17473 -0.468523 -1.41975
Li -0.741675 -2.58913 -1.54177
Li -1.1658 0.0440486 -2.06471
Li 2.57742 1.16984 1.32164
Li 0.11469 0.969546 2.39989
9
 Atoms. Timestep: 3700
Li -3.0394 1.19197 -0.24032
Li -0.862583 -1.62502 1.78116
Li 0.131821 3.36887 -0.175607
Li 0.995551 -3.2963 0.575349
Li 1.74766 -0.636953 -1.58285
Li -1.09419 -2.59238 -1.31405
Li -1.16534 0.100727 -1.92837
Li 2.39484 1.68964 0.822914
Li 0.317495 0.957695 2.59402
9
 Atoms. Timestep: 3750
Li -2.85345 1.30185 0.28682
Li -1.11611 -1.73327 1.83632
Li 0.221397 3.2397 -0.260612
Li 1.23093 -2.66272 0.567927
Li 2.00052 -1.02358 -1.77948
Li -1.49524 -2.3985 -0.790043
Li -0.789988 0.226612 -1.27313
Li 2.34992 1.57306 -0.0971039
Li 0.500565 1.04703 2.44396
9
 Atoms. Timestep: 3800
Li -2.37191 1.3028 0.99992
Li -1.50432 -1.27613 2.12115
Li -0.263051 2.99137 -0.466335
Li 1.44873 -1.84083 0.428331
Li 1.75479 -1.34565 -2.1898
Li -1.80916 -2.12998 -0.465141
Li 0.00430373 0.28722 -0.227131
Li 2.51358 0.711335 -0.901045
Li 0.590542 1.07844 1.83828
9
 Atoms. Timestep: 3850
Li -1.73545 1.51752 1.41884
Li -1.45185 -0.965447 2.47606
Li -0.621681 2.53193 -0.58399
Li 1.72718 -1.561 0.878872
Li 1.08972 -1.78555 -3.08253
Li -1.97962 -1.82725 -0.455232
Li -0.342822 0.00811773 -0.941535
Li 2.71845 0.221583 -1.14837
Li 0.86743 1.5777 2.51654
9
 Atoms. Timestep: 3900
Li -1.62752 1.77451 1.73871
Li -1.05592 -1.25411 2.60272
Li -0.491275 2.78978 -1.02698
Li 1.78643 -1.49142 1.20851
Li 0.4138 -1.88177 -3.49084
Li -2.38633 -2.01001 -0.367487
Li -0.253434 -0.106891 -1.69029
Li 2.54932 -0.17913 -1.07485
Li 0.875781 1.77199 2.88156
9
 Atoms. Timestep: 3950
Li -1.80901 1.62402 1.63122
Li -0.759882 -1.36373 2.29827
Li -0.184285 2.9203 -1.23764
Li 1.50154 -1.55246 1.32836
Li 0.105711 -1.94046 -3.67804
Li -2.37506 -2.08096 -0.423893
Li -0.301138 0.0485589 -1.55185
Li 2.23235 -0.261921 -0.871937
Li 0.732903 1.57783 2.85502
9
 Atoms. Timestep: 4000
Li -2.0797 1.15979 1.09164
Li -1.39644 -1.17815 1.99799
Li 0.160422 2.80649 -1.10759
Li 1.63039 -1.91721 1.11895
Li 0.169892 -1.73343 -3.35935
Li -1.9257 -1.99699 -0.608747
Li -0.706824 0.226933 -0.847344
Li 2.21881 0.160963 -0.745288
Li 0.424346 1.01414 2.39048
9
 Atoms. Timestep: 4050
Li -3.02035 1.33822 0.864791
Li -1.79862 -1.38605 1.69252
Li 0.485176 2.71616 -0.694704
Li 1.32829 -2.14698 0.722292
Li 0.513462 -1.23665 -2.47459
Li -1.51972 -2.33678 -0.928927
Li -0.283085 0.0884421 -0.676257
Li 2.18666 0.807506 -0.509503
Li 0.19145 0.426148 1.66891
9
 Atoms. Timestep: 4100
Li -3.69961 1.48111 0.713427
Li -1.95353 -1.67403 1.32266
Li 0.370568 2.95048 -0.18724
Li 0.703664 -1.92317 0.108561
Li 1.68611 -1.53332 -2.49375
Li -1.18496 -2.69682 -1.29228
Li -1.0801 0.288126 -0.506786
Li 2.6855 0.970694 -0.0785032
Li 0.512957 0.378732 2.05089
9
 Atoms. Timestep: 4150
Li -3.79678 1.39263 0.560432
Li -1.7276 -1.81254 1.07591
Li 0.0838972 2.80047 0.257815
Li 0.721178 -1.21152 0.00264339
Li 2.61482 -1.76376 -2.41643
Li -1.49131 -2.86018 -1.84596
Li -1.49534 0.555791 -0.201296
Li 2.72702 0.836427 0.307497
Li 0.73847 0.525283 2.11206
9
 Atoms. Timestep: 4200
Li -3.76361 1.31733 0.614085
Li -1.38095 -1.92434 1.14043
Li 0.0297998 2.76869 0.496676
Li 0.914942 -1.03715 -0.235428
Li 2.89458 -1.71293 -2.14651
Li -1.80451 -2.57323 -1.90034
Li -1.20916 0.389921 -0.238487
Li 2.79032 0.811017 0.326219
Li 0.494193 0.814449 2.17814
9
 Atoms. Timestep: 4250
Li -3.27002 1.17461 0.745666
Li -1.00101 -1.87159 1.45011
Li 0.14294 3.12809 0.230336
Li 1.00233 -1.71363 -0.0779356
Li 2.81359 -1.42303 -2.14046
Li -1.9501 -1.96193 -1.4041
Li -1.08807 0.192131 -0.465895
Li 2.85581 0.97777 0.108887
Li 0.10642 0.778892 2.20585
9
 Atoms. Timestep: 4300
Li -2.52234 1.01744 0.982098
Li -1.23299 -1.60672 2.12782
Li 0.191525 3.02033 -0.242997
Li 1.17834 -2.18768 0.216908
Li 2.45676 -0.975603 -2.42029
Li -2.09671 -1.90616 -0.782896
Li -0.123763 0.532969 -0.616043
Li 2.3985 0.861427 -0.271544
Li -0.153156 0.84568 1.97238
9
 Atoms. Timestep: 4350
Li -2.13925 0.77355 0.821942
Li -1.5526 -1.2729 2.47353
Li 0.241311 2.96022 -0.610684
Li 1.20492 -2.1902 0.410911
Li 1.59659 -0.663924 -2.59708
Li -1.93099 -1.81474 -0.067997
Li -0.449506 -0.124859 -1.29029
Li 2.76562 0.830541 -0.306367
Li 0.523413 1.21207 2.23703
9
 Atoms. Timestep: 4400
Li -1.95211 0.913106 0.645056
Li -1.52653 -0.878718 2.89354
Li 0.217026 2.48083 -0.808199
Li 0.951204 -1.76036 0.463431
Li 1.22943 -0.741202 -2.96563
Li -1.91694 -2.37744 0.413773
Li -1.13047 -0.227145 -1.65484
Li 2.96848 0.769523 -0.179763
Li 1.21332 1.39481 2.13044
9
 Atoms. Timestep: 4450
Li -1.86383 1.19025 0.833219
Li -1.26191 -0.587373 2.84582
Li 0.176058 1.72204 -0.773069
Li 0.542096 -1.06658 0.398976
Li 1.01128 -0.938506 -3.00565
Li -1.77975 -2.78101 0.438378
Li -1.29024 -0.209641 -1.68697
Li 2.69183 0.548298 -0.240848
Li 1.32832 1.36544 1.80511
9
 Atoms. Timestep: 4500
Li -1.94906 1.33646 0.916277
Li -0.933812 -0.708852 2.52096
Li 0.395045 1.78477 -0.796998
Li 0.34601 -0.837032 0.349834
Li 0.91499 -1.1157 -2.59685
Li -1.51338 -2.64425 -0.00504523
Li -1.61917 -0.433952 -1.3369
Li 2.62731 0.114006 -0.801156
Li 0.665474 1.337 1.96385
9
 Atoms. Timestep: 4550
Li -2.11396 1.40034 0.764782
Li -1.16572 -1.26234 2.59779
Li 0.254499 2.29206 -0.880989
Li 0.947822 -1.2878 0.444521
Li 0.578751 -1.32146 -2.29673
Li -1.39036 -2.77757 -0.503729
Li -1.82798 -0.0205982 -1.29898
Li 2.99163 0.040946 -1.14906
Li 0.127084 1.41715 2.19278
9
 Atoms. Timestep: 4600
Li -2.53959 1.61587 0.930926
Li -1.34808 -1.67628 2.11592
Li -0.10231 2.53397 -0.649482
Li 1.21138 -1.77447 1.00196
Li 0.39807 -1.48682 -2.45313
Li -1.33137 -2.66856 -0.937495
Li -1.27028 0.239637 -1.38122
Li 3.17652 0.32438 -1.1664
Li -0.0592989 1.19654 2.23691
9
 Atoms. Timestep: 4650
Li -2.75322 1.59582 0.939328
Li -1.45578 -1.73174 1.41224
Li -0.393541 2.92337 -0.0906443
Li 1.29425 -2.1585 1.12989
Li 1.07441 -1.45834 -2.79849
Li -1.5758 -2.36591 -1.00515
Li -0.685892 0.193145 -0.911518
Li 2.82987 0.616444 -0.852704
Li -0.116855 0.7445 1.92831
9
 Atoms. Timestep: 4700
Li -2.5481 1.24362 0.80134
Li -1.57654 -1.46633 1.36368
Li -0.521595 3.14307 0.460218
Li 1.18173 -2.23694 0.840987
Li 1.66197 -1.21709 -2.71329
Li -1.75966 -2.12683 -1.6692
Li -0.0585868 -0.200457 -0.77234
Li 2.1124 0.80142 -0.332282
Li 0.123277 0.681264 2.02901
9
 Atoms. Timestep: 4750
Li -2.12282 0.917134 0.546216
Li -1.52158 -1.50249 1.40344
Li -0.374584 2.9324 0.673861
Li 1.02173 -2.0806 0.439057
Li 2.07022 -0.919818 -2.34482
Li -2.13711 -2.15213 -2.19791
Li -0.340883 -0.375275 -0.998577
Li 2.02086 1.11087 0.355824
Li 0.572695 1.07114 2.50177
9
 Atoms. Timestep: 4800
Li -2.3366 1.15564 0.559369
Li -1.15422 -1.82738 1.62663
Li 0.106888 2.72539 0.413566
Li 1.22934 -2.00414 0.237744
Li 2.142 -0.694891 -1.82223
Li -2.53367 -2.31524 -2.32362
Li -0.326686 0.0396066 -1.21537
Li 2.06726 1.01155 0.334582
Li 0.548893 1.27765 2.92666
9
 Atoms. Timestep: 4850
Li -2.63571 1.34277 0.852296
Li -0.898039 -1.71472 1.83985
Li 0.272974 2.63407 -0.138204
Li 1.29405 -1.93673 0.356179
Li 2.26646 -0.710166 -2.24594
Li -2.52243 -2.2756 -1.89542
Li -0.320413 0.308322 -0.990991
Li 2.27873 0.622468 0.373487
Li 0.358227 1.32975 2.8127
9
 Atoms. Timestep: 4900
Li -2.49524 1.35032 1.04425
Li -0.93777 -1.19301 2.04692
Li 0.37103 2.84227 -0.487987
Li 1.31015 -1.97114 0.348114
Li 2.01881 -0.9641 -2.90803
Li -2.11218 -2.05024 -1.07605
Li -0.453868 -0.136899 -0.413854
Li 2.29613 0.556798 0.439049
Li 0.129929 1.18809 1.99296
9
 Atoms. Timestep: 4950
Li -2.38239 1.15831 1.01507
Li -1.30301 -1.07694 2.27879
Li 0.341908 2.77747 -0.722558
Li 1.26622 -2.26681 0.357559
Li 1.36924 -1.24225 -3.10652
Li -1.94352 -2.34527 -0.265936
Li -0.211628 -0.0148832 -0.553644
Li 2.32178 0.660196 0.0118753
Li 0.378799 1.78068 1.78358
9
 Atoms. Timestep: 5000
Li -2.30483 0.953418 0.731284
Li -1.5325 -1.14427 2.33167
Li 0.228722 2.67935 -0.954433
Li 1.04058 -2.2932 0.344635
Li 0.618239 -1.46332 -2.83804
Li -1.76583 -2.73085 0.250114
Li -0.203982 0.0502526 -1.03438
Li 2.49973 0.706577 -0.590696
Li 0.747786 2.33549 2.22879
9
 Atoms. Timestep: 5050
Li -2.38683 1.01568 0.59343
Li -1.45838 -1.12228 2.36421
Li 0.135022 2.72001 -0.843062
Li 0.867692 -1.93759 0.249003
Li 0.317177 -1.99176 -2.71003
Li -1.62548 -2.90799 0.0179783
Li -0.375063 -0.0862415 -0.826248
Li 2.40971 0.717666 -1.02122
Li 0.889159 2.31884 2.28625
9
 Atoms. Timestep: 5100
Li -2.75267 1.30406 0.884785
Li -1.18686 -1.10261 1.92227
Li 0.0379457 2.60612 -0.450073
Li 1.34944 -1.93178 0.466845
Li 0.345011 -2.27887 -2.29936
Li -1.65178 -2.62846 -0.620776
Li -0.562186 0.0575618 -0.926607
Li 2.02697 0.644708 -1.11672
Li 0.753139 1.78171 1.98238
9
 Atoms. Timestep: 5150
Li -2.63047 1.37969 1.0476
Li -0.919262 -1.17351 1.34965
Li -0.161307 2.72075 -0.297911
Li 1.52989 -1.78699 0.557507
Li 1.00964 -1.99692 -1.99067
Li -1.96735 -2.26978 -1.03431
Li -0.910467 0.248949 -0.829149
Li 1.76681 0.505319 -0.78847
Li 0.504342 0.734177 1.73983
9
 Atoms. Timestep: 5200
Li -2.14407 1.26688 1.12491
Li -1.51106 -2.14716 1.33443
Li -0.2355 3.06258 -0.158119
Li 1.61932 -1.87402 0.933207
Li 1.59676 -1.36662 -2.12321
Li -2.31107 -2.15285 -1.34719
Li -0.967563 0.41755 -1.1823
Li 1.85014 0.758307 -0.531479
Li 0.505365 0.516433 1.8205
9
 Atoms. Timestep: 5250
Li -1.98747 1.15352 1.02379
Li -1.84605 -2.57698 1.39531
Li -0.142455 3.06346 -0.0231587
Li 1.38925 -2.0146 1.04956
Li 1.79653 -0.828663 -2.35055