LAMMPS (22 Jul 2025)
# TMD simulation using spring forces toward target
units metal
atom_style atomic
boundary f f f

# Read initial structure
read_data input.data
Reading data file ...
  orthogonal box = (-8.4276 -9.2826 -7.9982) to (8.4276 7.5707 7.1413)
  1 by 1 by 1 MPI processor grid
  reading atoms ...
  8 atoms
  read_data CPU = 0.000 seconds

# Li-Li interactions using Lennard-Jones potential
pair_style lj/cut 10.0
pair_coeff 1 1 0.05 2.5

# Define atom groups
group mobile id > 0
8 atoms in group mobile

# Energy minimization
minimize 1.0e-4 1.0e-6 1000 10000
Generated 0 of 0 mixed pair_coeff terms from geometric mixing rule
Neighbor list info ...
  update: every = 1 steps, delay = 0 steps, check = yes
  max neighbors/atom: 2000, page size: 100000
  master list distance cutoff = 12
  ghost atom cutoff = 12
  binsize = 6, bins = 3 3 3
  1 neighbor lists, perpetual/occasional/extra = 1 0 0
  (1) pair lj/cut, perpetual
      attributes: half, newton on
      pair build: half/bin/atomonly/newton
      stencil: half/bin/3d
      bin: standard
Per MPI rank memory allocation (min/avg/max) = 4.16 | 4.16 | 4.16 Mbytes
   Step          Temp          E_pair         E_mol          TotEng         Press     
         0   0             -0.47630594     0             -0.47630594    -204.46868    
       108   0             -0.93825206     0             -0.93825206     1.3859093    
Loop time of 4.8292e-05 on 1 procs for 108 steps with 8 atoms

99.4% CPU use with 1 MPI tasks x no OpenMP threads

Minimization stats:
  Stopping criterion = energy tolerance
  Energy initial, next-to-last, final = 
    -0.476305940519769 -0.938165861417636 -0.938252063576945
  Force two-norm initial, final = 0.22235822 0.0086879126
  Force max component initial, final = 0.07277238 0.0038997287
  Final line search alpha, max atom move = 1 0.0038997287
  Iterations, force evaluations = 108 108

MPI task timing breakdown:
Section |  min time  |  avg time  |  max time  |%varavg| %total
---------------------------------------------------------------
Pair    | 2.4832e-05 | 2.4832e-05 | 2.4832e-05 |   0.0 | 51.42
Neigh   | 1.375e-06  | 1.375e-06  | 1.375e-06  |   0.0 |  2.85
Comm    | 4.71e-06   | 4.71e-06   | 4.71e-06   |   0.0 |  9.75
Output  | 0          | 0          | 0          |   0.0 |  0.00
Modify  | 0          | 0          | 0          |   0.0 |  0.00
Other   |            | 1.738e-05  |            |       | 35.98

Nlocal:              8 ave           8 max           8 min
Histogram: 1 0 0 0 0 0 0 0 0 0
Nghost:              0 ave           0 max           0 min
Histogram: 1 0 0 0 0 0 0 0 0 0
Neighs:             28 ave          28 max          28 min
Histogram: 1 0 0 0 0 0 0 0 0 0

Total # of neighbors = 28
Ave neighs/atom = 3.5
Neighbor list builds = 2
Dangerous builds = 0

# Initialize velocities with controlled temperature
velocity mobile create 200.0 4928459 rot yes dist gaussian

# TMD implementation using individual spring forces
# Read target coordinates and apply spring force for each atom
variable k_spring equal 20.0  # Spring constant

# Apply spring forces toward target positions for each atom
# We'll use individual fix spring commands for each atom
fix spring1 1 spring tether ${k_spring} -1.906000 0.819000 -1.896000 0.0
fix spring1 1 spring tether 20 -1.906000 0.819000 -1.896000 0.0
ERROR: Could not find fix group ID 1 (src/modify.cpp:846)
Last input line: fix spring1 1 spring tether ${k_spring} -1.906000 0.819000 -1.896000 0.0
--> parsed line: fix spring1 1 spring tether 20 -1.906000 0.819000 -1.896000 0.0 
                             ^
