8
 Atoms. Timestep: 0
Li -1.747423 -2.552706 2.112769
Li -3.359028 -0.871091 0.446989
Li -0.012820 -0.792698 0.451705
Li -0.041233 -4.348472 0.411610
Li 1.744211 0.812525 -1.340928
Li 3.543351 2.539234 0.380186
Li -0.022068 2.654545 0.441934
Li 0.041393 2.563128 -2.940890
8
 Atoms. Timestep: 10
Li -1.721880 -2.605581 2.187001
Li -3.440559 -0.892137 0.432356
Li 0.009106 -0.940196 0.457316
Li -0.011469 -4.343315 0.398469
Li 1.754145 0.898852 -1.242293
Li 3.395147 2.577918 0.445572
Li 0.079109 2.588234 0.469180
Li -0.010980 2.539698 -3.024384
8
 Atoms. Timestep: 20
Li -1.751556 -2.585869 2.202271
Li -3.380059 -0.923887 0.509623
Li 0.049622 -0.777586 0.447804
Li -0.115494 -4.309318 0.382694
Li 1.864393 0.831602 -1.200868
Li 3.439757 2.580363 0.431748
Li 0.072537 2.504387 0.417541
Li 0.004685 2.612209 -3.024922
8
 Atoms. Timestep: 30
Li -1.701389 -2.544217 2.260271
Li -3.447510 -0.852015 0.491057
Li -0.083397 -0.860700 0.443240
Li -0.052607 -4.296244 0.437551
Li 1.675886 0.867851 -1.330334
Li 3.375232 2.537651 0.446616
Li 0.123890 2.588713 0.443860
Li -0.059759 2.612515 -2.919058
8
 Atoms. Timestep: 40
Li -1.633477 -2.551425 2.184872
Li -3.408996 -0.764589 0.429504
Li -0.003396 -0.740809 0.508776
Li -0.015647 -4.183743 0.401052
Li 1.701464 0.831795 -1.203289
Li 3.308383 2.628806 0.420977
Li 0.001269 2.578047 0.372546
Li -0.006874 2.591032 -2.874558
8
 Atoms. Timestep: 50
Li -1.616349 -2.506132 2.135511
Li -3.352746 -0.857062 0.466665
Li -0.007801 -0.851496 0.458064
Li 0.121814 -4.209040 0.460382
Li 1.778111 0.784991 -1.246182
Li 3.492642 2.630867 0.532839
Li 0.064468 2.587390 0.505331
Li 0.069497 2.598694 -2.960756
8
 Atoms. Timestep: 60
Li -1.695682 -2.531620 2.174813
Li -3.359713 -0.729014 0.451722
Li -0.000813 -0.818607 0.494153
Li 0.104626 -4.209721 0.398809
Li 1.702314 0.957544 -1.236361
Li 3.503107 2.610937 0.526868
Li 0.084785 2.645490 0.518052
Li 0.068729 2.598090 -2.994843
8
 Atoms. Timestep: 70
Li -1.554192 -2.452996 2.214754
Li -3.352485 -0.778316 0.505358
Li 0.173897 -0.751242 0.483899
Li 0.063812 -4.138789 0.618625
Li 1.884095 0.894779 -1.205509
Li 3.535582 2.698493 0.485290
Li 0.120845 2.587508 0.526037
Li 0.114370 2.666203 -2.883318
8
 Atoms. Timestep: 80
Li -1.649014 -2.472286 2.222502
Li -3.299240 -0.853086 0.511327
Li 0.133337 -0.609733 0.570717
Li 0.113148 -4.145980 0.589035
Li 1.845322 0.914602 -1.179283
Li 3.591243 2.825512 0.497599
Li 0.233812 2.615091 0.568767
Li 0.109295 2.697473 -2.852807
8
 Atoms. Timestep: 90
Li -1.557154 -2.323759 2.331478
Li -3.231211 -0.605094 0.518899
Li 0.248963 -0.653501 0.636958
Li 0.156240 -4.032463 0.530511
Li 1.840081 1.027406 -1.135257
Li 3.491659 2.681180 0.571696
Li 0.212617 2.717582 0.635286
Li 0.085463 2.689204 -2.816348
8
 Atoms. Timestep: 100
Li -1.498333 -2.297862 2.142456
Li -3.207184 -0.723407 0.579181
Li 0.234624 -0.623800 0.567632
Li 0.182722 -3.983917 0.608723
Li 1.910485 1.123662 -1.168200
Li 3.636556 2.698988 0.644962
Li 0.259480 2.693269 0.662949
Li 0.176950 2.788575 -2.805198
8
 Atoms. Timestep: 110
Li -1.435015 -2.215452 2.259856
Li -3.170428 -0.672623 0.640420
Li 0.277852 -0.665551 0.568418
Li 0.275815 -3.978763 0.616366
Li 1.880252 1.257832 -1.035544
Li 3.686755 2.798038 0.727900
Li 0.200154 2.730226 0.651587
Li 0.282501 2.784216 -2.664277
8
 Atoms. Timestep: 120
Li -1.457599 -2.319182 2.340726
Li -3.072738 -0.517698 0.679514
Li 0.325857 -0.487385 0.649428
Li 0.304715 -3.953862 0.688990
Li 2.005694 1.201821 -1.068614
Li 3.759960 2.782384 0.725420
Li 0.278557 2.734808 0.731516
Li 0.236420 2.777247 -2.693299
8
 Atoms. Timestep: 130
Li -1.378803 -2.173912 2.361508
Li -3.018360 -0.545622 0.743664
Li 0.398169 -0.471233 0.725054
Li 0.314833 -3.824024 0.707620
Li 2.148471 1.222005 -1.111245
Li 3.650040 2.849272 0.800990
Li 0.298386 2.750931 0.807165
Li 0.234465 2.848292 -2.691945
8
 Atoms. Timestep: 140
Li -1.364423 -2.056055 2.348425
Li -2.965842 -0.470196 0.727082
Li 0.504108 -0.452234 0.716489
Li 0.414787 -3.694432 0.799101
Li 2.125635 1.229767 -0.862833
Li 3.795458 2.872060 0.818953
Li 0.397498 2.873388 0.887230
Li 0.255046 2.973972 -2.565114
8
 Atoms. Timestep: 150
Li -1.210525 -2.044161 2.462880
Li -2.874704 -0.321027 0.895972
Li 0.536776 -0.299134 0.750956
Li 0.397231 -3.741374 0.839837
Li 2.001440 1.238694 -0.928601
Li 3.738786 2.964280 0.959357
Li 0.405152 2.888784 0.809150
Li 0.467437 2.973353 -2.400101
8
 Atoms. Timestep: 160
Li -1.262948 -1.924332 2.477947
Li -2.879066 -0.371519 0.795395
Li 0.561448 -0.300866 0.896369
Li 0.512652 -3.598098 0.875789
Li 2.181421 1.466566 -0.903462
Li 3.843446 2.959122 0.926716
Li 0.524770 2.890538 0.920797
Li 0.412404 2.954244 -2.401412
8
 Atoms. Timestep: 170
Li -1.202996 -1.829379 2.524898
Li -2.749936 -0.312263 0.931365
Li 0.630673 -0.239789 0.888581
Li 0.565463 -3.410987 0.928447
Li 2.260166 1.365560 -0.788742
Li 3.948387 3.035641 0.988141
Li 0.530801 2.996330 1.035399
Li 0.472949 3.025059 -2.351259
8
 Atoms. Timestep: 180
Li -1.108058 -1.804993 2.614907
Li -2.667206 -0.229173 0.997713
Li 0.787653 -0.246708 0.915782
Li 0.581461 -3.325420 1.017072
Li 2.292533 1.410142 -0.701531
Li 3.912555 3.143218 1.096112
Li 0.534364 2.933406 1.060403
Li 0.621922 3.064612 -2.336562
8
 Atoms. Timestep: 190
Li -1.098929 -1.748638 2.586995
Li -2.515390 -0.137022 1.051596
Li 0.824608 -0.098455 1.007090
Li 0.676914 -3.366287 1.063049
Li 2.324320 1.534346 -0.717959
Li 3.945050 3.126432 1.245967
Li 0.671688 3.093151 1.172732
Li 0.639719 3.118197 -2.135910
8
 Atoms. Timestep: 200
Li -0.980752 -1.709877 2.659015
Li -2.475549 0.014520 1.094727
Li 0.859881 -0.042953 1.069168
Li 0.703162 -3.158629 1.182655
Li 2.421397 1.563976 -0.602691
Li 4.024775 3.272313 1.265512
Li 0.713527 3.096772 1.300400
Li 0.712943 3.280399 -2.070466
8
 Atoms. Timestep: 210
Li -0.931912 -1.541163 2.824300
Li -2.407214 0.024205 1.211030
Li 0.984857 0.018583 1.216524
Li 0.841227 -3.115343 1.180860
Li 2.470595 1.682180 -0.556498
Li 4.164245 3.313716 1.375311
Li 0.833347 3.104944 1.370546
Li 0.722254 3.231081 -1.900072
8
 Atoms. Timestep: 220
Li -0.882895 -1.485437 2.844131
Li -2.291723 0.093315 1.233367
Li 0.954667 0.224966 1.239648
Li 0.879054 -2.958300 1.249560
Li 2.572364 1.742367 -0.544788
Li 4.202340 3.369657 1.384241
Li 0.968478 3.239650 1.293159
Li 0.823594 3.278941 -1.903635
8
 Atoms. Timestep: 230
Li -0.745619 -1.321741 2.853323
Li -2.149686 0.210745 1.295481
Li 1.055386 0.315178 1.307405
Li 0.968999 -2.865850 1.264256
Li 2.639973 1.812528 -0.414428
Li 4.351837 3.456624 1.497426
Li 0.959639 3.264192 1.365171
Li 0.799642 3.444599 -1.804791
8
 Atoms. Timestep: 240
Li -0.630879 -1.215643 2.878865
Li -2.025202 0.289218 1.388125
Li 1.223533 0.329760 1.360176
Li 0.992409 -2.863110 1.359120
Li 2.697382 2.003682 -0.435781
Li 4.317141 3.528450 1.533361
Li 1.026004 3.268992 1.575822
Li 0.947525 3.514664 -1.635115
8
 Atoms. Timestep: 250
Li -0.534554 -1.204508 2.923309
Li -2.091863 0.320487 1.567805
Li 1.354993 0.414340 1.416370
Li 1.155415 -2.614216 1.414162
Li 2.771887 2.038601 -0.355898
Li 4.464962 3.545605 1.688431
Li 1.122544 3.414582 1.610985
Li 1.075010 3.494047 -1.580138
8
 Atoms. Timestep: 260
Li -0.521506 -1.095430 2.994013
Li -1.903063 0.388695 1.576128
Li 1.468815 0.597721 1.526583
Li 1.190004 -2.592545 1.601309
Li 2.876849 2.183485 -0.261481
Li 4.417459 3.616549 1.714979
Li 1.272566 3.510244 1.599720
Li 1.158642 3.518482 -1.365169
8
 Atoms. Timestep: 270
Li -0.456346 -0.952476 3.068267
Li -1.763197 0.527152 1.621440
Li 1.597059 0.680121 1.701855
Li 1.283292 -2.433610 1.609335
Li 2.892655 2.154243 -0.133720
Li 4.544780 3.716896 1.875080
Li 1.381786 3.488673 1.823132
Li 1.235453 3.658504 -1.387480
8
 Atoms. Timestep: 280
Li -0.430250 -0.826763 3.170392
Li -1.677146 0.568552 1.684942
Li 1.595612 0.650903 1.712941
Li 1.398924 -2.228700 1.756693
Li 3.003761 2.224211 -0.068515
Li 4.666418 3.762278 2.000837
Li 1.447924 3.545669 1.893893
Li 1.352478 3.824550 -1.236899
8
 Atoms. Timestep: 290
Li -0.292253 -0.717039 3.266836
Li -1.603590 0.802141 1.885991
Li 1.735976 0.844430 1.725344
Li 1.496614 -2.093547 1.878046
Li 3.146134 2.367981 -0.011529
Li 4.660663 3.863730 1.984020
Li 1.554629 3.688272 2.011398
Li 1.401678 3.953253 -1.176319
8
 Atoms. Timestep: 300
Li -0.240630 -0.680330 3.259737
Li -1.354418 0.796908 1.880764
Li 1.928576 0.974132 1.936032
Li 1.521124 -2.016475 1.924696
Li 3.234013 2.396977 0.188980
Li 4.831584 4.049962 2.114976
Li 1.657480 3.746755 2.112007
Li 1.497538 4.011265 -0.983314
8
 Atoms. Timestep: 310
Li -0.045964 -0.473745 3.419897
Li -1.351136 0.832622 1.872206
Li 1.984395 1.091436 1.948589
Li 1.711705 -1.765295 2.042494
Li 3.379690 2.506711 0.190747
Li 4.907431 4.078353 2.141230
Li 1.678268 3.744958 2.114580
Li 1.547125 4.010419 -0.822765
8
 Atoms. Timestep: 320
Li 0.046846 -0.385951 3.449511
Li -1.184834 0.968893 2.090485
Li 2.097523 1.294891 2.053531
Li 1.803533 -1.680741 2.103506
Li 3.499718 2.667426 0.325746
Li 4.961860 4.229635 2.321361
Li 1.922148 3.820493 2.303824
Li 1.709095 4.124185 -0.695461
8
 Atoms. Timestep: 330
Li 0.110696 -0.269567 3.533136
Li -1.099368 1.079404 2.216768
Li 2.235818 1.340396 2.104217
Li 1.778970 -1.554197 2.274864
Li 3.524233 2.866321 0.387695
Li 4.983182 4.288707 2.483442
Li 1.987921 3.915290 2.409382
Li 1.713101 4.139858 -0.685148
8
 Atoms. Timestep: 340
Li 0.318756 -0.049946 3.610832
Li -0.909394 1.327496 2.252093
Li 2.344316 1.482338 2.270487
Li 1.979442 -1.427849 2.286334
Li 3.624032 2.917036 0.467653
Li 5.081510 4.421366 2.563903
Li 2.049009 3.983215 2.486432
Li 1.832127 4.326245 -0.468444
8
 Atoms. Timestep: 350
Li 0.307289 0.034562 3.715997
Li -0.836260 1.464284 2.388847
Li 2.427150 1.629290 2.414663
Li 2.104822 -1.206110 2.415573
Li 3.716568 2.958676 0.618098
Li 5.212954 4.455549 2.790929
Li 2.135008 4.014098 2.659182
Li 1.951696 4.402447 -0.346350
8
 Atoms. Timestep: 360
Li 0.498509 0.078075 3.684815
Li -0.648207 1.533054 2.391474
Li 2.642162 1.704474 2.399296
Li 2.138544 -1.098997 2.519721
Li 3.835989 3.189684 0.603510
Li 5.288018 4.688354 2.899392
Li 2.261346 4.175085 2.747962
Li 1.949169 4.443413 -0.208376
8
 Atoms. Timestep: 370
Li 0.551122 0.271438 3.881439
Li -0.487619 1.488790 2.468233
Li 2.779279 1.859457 2.565490
Li 2.382370 -0.854628 2.621801
Li 3.783125 3.192250 0.765342
Li 5.374755 4.735275 2.891658
Li 2.478969 4.212094 2.935440
Li 2.142619 4.487582 -0.079186
8
 Atoms. Timestep: 380
Li 0.605009 0.462105 3.883238
Li -0.399417 1.684031 2.705729
Li 2.851837 2.058777 2.710357
Li 2.362252 -0.803770 2.729851
Li 4.051543 3.353365 0.839114
Li 5.521311 4.855293 3.045030
Li 2.526868 4.215245 2.929886
Li 2.091999 4.549430 0.108370
8
 Atoms. Timestep: 390
Li 0.813954 0.478563 4.050035
Li -0.211552 1.814650 2.827269
Li 2.917882 2.107106 2.795153
Li 2.519908 -0.508395 2.945226
Li 4.121811 3.443588 0.936729
Li 5.541744 4.850168 3.142111
Li 2.603434 4.381299 3.087987
Li 2.259375 4.709779 0.225438
8
 Atoms. Timestep: 400
Li 0.997976 0.630268 4.032488
Li -0.114213 1.925604 2.830227
Li 3.198487 2.252177 2.864668
Li 2.561178 -0.317900 2.981164
Li 4.242657 3.611901 1.016614
Li 5.679621 4.913335 3.322249
Li 2.749307 4.416974 3.266767
Li 2.470154 4.835142 0.382397
8
 Atoms. Timestep: 410
Li 1.025479 0.728914 4.126295
Li -0.042973 2.135287 3.032035
Li 3.225065 2.340366 2.900696
Li 2.739971 -0.233991 3.059832
Li 4.445918 3.723299 1.111317
Li 5.828081 5.004748 3.451012
Li 2.827396 4.488014 3.351966
Li 2.466138 5.031399 0.459038
8
 Atoms. Timestep: 420
Li 1.146168 0.993453 4.243781
Li 0.217564 2.176216 3.154414
Li 3.507672 2.472333 3.107827
Li 2.912406 0.029145 3.179027
Li 4.440104 3.856179 1.252278
Li 5.926082 5.225421 3.581172
Li 3.021006 4.616731 3.481544
Li 2.531291 5.015178 0.696511
8
 Atoms. Timestep: 430
Li 1.277960 1.177163 4.392848
Li 0.439334 2.410665 3.147373
Li 3.628675 2.644002 3.221281
Li 3.110065 0.065052 3.359566
Li 4.659659 3.911809 1.325553
Li 6.039252 5.309821 3.740884
Li 3.217425 4.694232 3.551275
Li 2.672658 5.187238 0.825655
8
 Atoms. Timestep: 440
Li 1.338376 1.375392 4.433463
Li 0.478116 2.460367 3.310493
Li 3.800607 2.855155 3.319647
Li 3.107464 0.255540 3.399043
Li 4.651505 4.132190 1.541058
Li 6.041365 5.442909 3.826141
Li 3.256863 4.771212 3.719327
Li 2.777536 5.217887 0.961903
8
 Atoms. Timestep: 450
Li 1.559728 1.395942 4.419515
Li 0.687230 2.622518 3.491215
Li 3.878094 2.941401 3.459852
Li 3.237948 0.510128 3.526774
Li 4.823975 4.281198 1.552944
Li 6.174242 5.455018 3.904863
Li 3.545944 4.879131 3.912618
Li 2.886151 5.422380 1.224308
8
 Atoms. Timestep: 460
Li 1.622095 1.575408 4.644456
Li 0.903309 2.755694 3.563836
Li 4.010356 3.139653 3.490454
Li 3.364116 0.709449 3.737306
Li 4.936342 4.401467 1.811377
Li 6.376945 5.589173 4.139294
Li 3.470172 4.868931 4.051287
Li 3.130428 5.509263 1.366214
8
 Atoms. Timestep: 470
Li 1.724520 1.748952 4.729826
Li 1.124124 2.929595 3.575076
Li 4.082189 3.247339 3.610796
Li 3.546988 0.984336 3.846857
Li 5.041552 4.551201 1.848418
Li 6.481223 5.767915 4.268591
Li 3.693209 5.057823 4.242327
Li 3.193042 5.574444 1.544053
8
 Atoms. Timestep: 480
Li 1.887140 1.944882 4.875229
Li 1.209449 3.010482 3.701098
Li 4.448847 3.346688 3.797541
Li 3.687498 1.146851 3.913321
Li 5.113549 4.660682 1.954566
Li 6.566803 5.905408 4.406542
Li 3.829224 5.101735 4.259940
Li 3.302384 5.778281 1.631749
8
 Atoms. Timestep: 490
Li 2.077714 2.158606 4.902231
Li 1.334748 3.164268 3.974733
Li 4.438825 3.584106 3.913355
Li 3.757035 1.234075 4.038269
Li 5.354370 4.853608 2.087424
Li 6.702243 5.966168 4.523244
Li 3.940933 5.275759 4.505599
Li 3.388402 5.848843 1.753569
8
 Atoms. Timestep: 500
Li 2.102060 2.290193 5.029225
Li 1.475072 3.338853 3.971897
Li 4.600819 3.665205 4.109222
Li 3.932670 1.506200 4.150976
Li 5.418937 4.841630 2.162182
Li 6.788397 6.061533 4.767916
Li 4.018366 5.385198 4.536308
Li 3.527118 5.917265 1.953661
8
 Atoms. Timestep: 510
Li 2.314329 2.462503 5.059687
Li 1.746224 3.434525 4.204948
Li 4.880664 3.880410 4.207467
Li 4.005117 1.649545 4.282202
Li 5.597385 5.083349 2.261529
Li 6.927984 6.198350 4.937943
Li 4.227094 5.451926 4.734029
Li 3.739242 6.085297 2.173847
8
 Atoms. Timestep: 520
Li 2.466366 2.619940 5.222103
Li 1.890732 3.562219 4.248087
Li 4.973229 4.077079 4.316864
Li 4.135307 1.809651 4.386476
Li 5.708190 5.077819 2.347213
Li 6.992967 6.390401 5.034431
Li 4.400374 5.540665 4.882607
Li 3.816019 6.159101 2.331195
8
 Atoms. Timestep: 530
Li 2.568088 2.705814 5.433206
Li 2.107112 3.753729 4.508171
Li 5.185146 4.207602 4.482101
Li 4.350129 2.110278 4.544920
Li 5.850894 5.336310 2.500595
Li 7.113083 6.539781 5.231219
Li 4.542092 5.620821 5.020201
Li 3.908349 6.290572 2.536898
8
 Atoms. Timestep: 540
Li 2.734358 2.902289 5.461060
Li 2.251602 3.880797 4.559814
Li 5.341839 4.280219 4.554418
Li 4.527327 2.219605 4.609588
Li 5.931056 5.415381 2.613418
Li 7.281896 6.596713 5.316209
Li 4.666440 5.740716 5.195649
Li 4.099754 6.442288 2.604685
8
 Atoms. Timestep: 550
Li 2.945252 3.150863 5.586373
Li 2.378545 4.008663 4.681303
Li 5.502397 4.524543 4.745952
Li 4.624886 2.547731 4.734655
Li 6.080310 5.534226 2.794116
Li 7.355206 6.738811 5.418635
Li 4.771281 5.787328 5.399730
Li 4.166966 6.713093 2.939694
8
 Atoms. Timestep: 560
Li 3.060170 3.336460 5.533038
Li 2.654344 4.199560 4.813980
Li 5.712624 4.737693 4.721698
Li 4.647306 2.683929 4.898360
Li 6.355523 5.723096 2.874779
Li 7.527256 6.830380 5.525697
Li 5.020955 5.958304 5.576328
Li 4.297675 6.674263 3.072277
8
 Atoms. Timestep: 570
Li 3.204435 3.484917 5.775592
Li 2.741165 4.433731 4.958889
Li 5.863770 4.799343 4.931463
Li 4.932219 2.922178 5.020393
Li 6.336695 5.936906 3.002438
Li 7.690445 7.070356 5.807495
Li 5.070275 5.928423 5.686275
Li 4.387679 6.830101 3.224427
8
 Atoms. Timestep: 580
Li 3.330123 3.622257 5.845538
Li 2.908506 4.561799 5.135317
Li 5.942259 5.132012 5.013402
Li 5.015291 3.142709 5.132959
Li 6.504209 5.996833 3.062360
Li 7.755431 7.187509 5.948864
Li 5.245405 6.046068 5.735602
Li 4.474488 6.944043 3.366174
8
 Atoms. Timestep: 590
Li 3.352038 3.754464 5.828169
Li 3.117819 4.638016 5.139764
Li 6.285726 5.237600 5.236089
Li 5.189252 3.375515 5.344620
Li 6.606114 6.139975 3.310634
Li 7.849430 7.315406 6.002602
Li 5.403989 6.232820 5.820342
Li 4.648846 7.053254 3.590975
8
 Atoms. Timestep: 600
Li 3.487823 3.930131 6.005411
Li 3.276971 4.726433 5.333701
Li 6.334581 5.338337 5.324567
Li 5.340198 3.514373 5.450837
Li 6.760109 6.299641 3.398701
Li 8.017159 7.467360 6.246859
Li 5.473569 6.268247 6.003834
Li 4.724965 7.234683 3.797136
8
 Atoms. Timestep: 610
Li 3.645215 4.147065 6.154980
Li 3.535164 4.956326 5.515140
Li 6.533843 5.554176 5.472401
Li 5.475866 3.768551 5.596491
Li 6.856028 6.567960 3.629073
Li 8.127886 7.501397 6.268833
Li 5.589400 6.325610 6.214823
Li 4.901015 7.312141 3.982923
8
 Atoms. Timestep: 620
Li 3.858304 4.359139 6.342728
Li 3.664941 5.133989 5.652534
Li 6.717758 5.711863 5.653514
Li 5.630242 4.002061 5.710123
Li 7.046394 6.670671 3.693975
Li 8.203562 7.667086 6.480542
Li 5.780603 6.429350 6.332908
Li 5.057477 7.405986 4.156213
8
 Atoms. Timestep: 630
Li 3.944191 4.531203 6.396370
Li 3.908797 5.317211 5.746311
Li 6.838991 5.869019 5.706164
Li 5.795475 4.193917 5.785468
Li 7.208124 6.771649 3.839613
Li 8.317064 7.779493 6.652553
Li 5.930478 6.631319 6.540721
Li 5.220827 7.612001 4.300990
8
 Atoms. Timestep: 640
Li 4.133054 4.753283 6.488180
Li 4.065844 5.328645 5.917683
Li 6.986323 6.054392 5.869392
Li 5.865984 4.338882 6.050324
Li 7.275497 6.983701 3.868067
Li 8.502735 7.972726 6.843948
Li 6.179497 6.721080 6.759033
Li 5.340449 7.863603 4.496401
8
 Atoms. Timestep: 650
Li 4.277722 4.839431 6.500795
Li 4.305616 5.467848 5.985750
Li 7.280596 6.245035 6.009610
Li 6.044072 4.630648 6.159737
Li 7.468200 7.162305 3.969371
Li 8.691286 7.945367 7.101488
Li 6.320586 6.827150 6.751096
Li 5.417783 7.753113 4.782065
8
 Atoms. Timestep: 660
Li 4.293973 4.989594 6.712764
Li 4.363565 5.666492 6.116136
Li 7.340175 6.387668 6.210340
Li 6.270972 4.849332 6.340764
Li 7.536552 7.187472 4.178962
Li 8.685938 8.202487 7.217683
Li 6.507729 6.853481 6.938921
Li 5.598854 7.933707 4.921261
8
 Atoms. Timestep: 670
Li 4.638044 5.251299 6.834232
Li 4.548945 5.924975 6.261676
Li 7.564125 6.537825 6.322534
Li 6.360252 5.063800 6.416076
Li 7.689535 7.422169 4.308356
Li 8.804768 8.260633 7.365106
Li 6.647583 7.038167 7.164355
Li 5.790468 8.051714 5.072762
8
 Atoms. Timestep: 680
Li 4.672050 5.424101 6.998936
Li 4.796288 6.044343 6.416750
Li 7.788955 6.793227 6.456415
Li 6.495476 5.218952 6.523084
Li 7.818493 7.586029 4.491634
Li 9.069959 8.397304 7.446700
Li 6.755748 7.105862 7.241222
Li 5.896566 8.192317 5.218786
8
 Atoms. Timestep: 690
Li 4.809155 5.628395 7.087608
Li 4.988594 6.250958 6.548279
Li 7.903831 6.934132 6.610369
Li 6.690870 5.525153 6.736953
Li 8.051078 7.604864 4.553821
Li 9.130795 8.666501 7.787454
Li 6.888056 7.249320 7.398957
Li 5.969658 8.302725 5.433673
8
 Atoms. Timestep: 700
Li 5.074900 5.763961 7.108274
Li 5.144547 6.404467 6.664811
Li 8.119355 7.087579 6.751087
Li 6.848658 5.711308 6.890379
Li 8.131691 7.792791 4.709330
Li 9.284790 8.720951 7.897071
Li 7.041850 7.410570 7.642988
Li 6.082273 8.463629 5.743478
8
 Atoms. Timestep: 710
Li 5.070679 6.025934 7.297219
Li 5.460677 6.580572 6.871567
Li 8.203050 7.224922 6.976147
Li 7.046603 5.948239 7.007935
Li 8.267822 7.922983 4.787006
Li 9.405992 8.913981 7.967718
Li 7.246125 7.453782 7.775934
Li 6.313901 8.616428 5.739993
8
 Atoms. Timestep: 720
Li 5.418290 6.187191 7.416041
Li 5.623752 6.732751 7.009782
Li 8.478884 7.565968 6.976070
Li 7.059188 6.208596 7.142954
Li 8.459195 8.210455 4.913384
Li 9.503834 9.033719 8.216927
Li 7.289446 7.520454 7.905050
Li 6.413013 8.681664 6.113663
8
 Atoms. Timestep: 730
Li 5.474631 6.279409 7.467711
Li 5.757519 6.830514 7.199945
Li 8.558230 7.664500 7.140712
Li 7.251983 6.352847 7.235725
Li 8.586453 8.321553 5.141700
Li 9.644800 9.102229 8.274529
Li 7.563982 7.585754 8.100962
Li 6.572152 8.789324 6.252978
8
 Atoms. Timestep: 740
Li 5.607358 6.555496 7.598423
Li 5.904083 7.036404 7.232717
Li 8.675406 7.835439 7.343203
Li 7.328293 6.602871 7.395829
Li 8.703908 8.516275 5.253237
Li 9.694359 9.293759 8.523655
Li 7.746963 7.752446 8.249542
Li 6.584380 9.004395 6.416160
8
 Atoms. Timestep: 750
Li 5.801216 6.704321 7.616039
Li 6.177126 7.137219 7.440317
Li 8.993654 7.980578 7.340901
Li 7.579288 6.719739 7.520344
Li 8.891756 8.692202 5.321743
Li 9.971051 9.354161 8.773409
Li 7.899029 7.858070 8.329348
Li 6.753439 9.079660 6.642146
8
 Atoms. Timestep: 760
Li 6.012844 6.887745 7.834760
Li 6.404156 7.335865 7.575230
Li 9.229649 8.105960 7.597807
Li 7.688517 7.057476 7.681753
Li 9.070275 8.834935 5.496416
Li 10.011652 9.547366 8.808179
Li 7.980085 8.006510 8.627401
Li 6.882347 9.335317 6.773409
8
 Atoms. Timestep: 770
Li 6.186185 7.110589 7.869559
Li 6.530466 7.460112 7.746335
Li 9.276451 8.423686 7.655637
Li 7.880817 7.233593 7.867476
Li 9.143738 8.982167 5.530383
Li 10.088485 9.628543 8.986893
Li 8.154305 8.032884 8.756281
Li 6.996689 9.410105 7.039118
8
 Atoms. Timestep: 780
Li 6.223262 7.239827 8.042525
Li 6.748593 7.589079 7.761945
Li 9.548990 8.478612 7.711805
Li 8.060218 7.541776 8.103629
Li 9.256281 9.142399 5.795283
Li 10.198938 9.838436 9.126269
Li 8.228423 8.161080 8.879673
Li 7.293750 9.363964 7.217862
8
 Atoms. Timestep: 790
Li 6.429565 7.388500 8.104032
Li 6.810163 7.781060 7.926960
Li 9.721354 8.660056 7.970410
Li 8.185234 7.669278 8.159977
Li 9.417075 9.271452 5.879277
Li 10.447971 10.004301 9.315193
Li 8.443532 8.290389 9.076616
Li 7.314526 9.632434 7.399372
8
 Atoms. Timestep: 800
Li 6.471776 7.471651 8.208589
Li 7.013878 7.994548 8.165942
Li 9.871354 8.841962 8.149440
Li 8.318977 7.839940 8.327384
Li 9.717860 9.391343 5.979101
Li 10.607815 10.129147 9.480658
Li 8.617854 8.341098 9.169723
Li 7.508376 9.742792 7.613848
8
 Atoms. Timestep: 810
Li 6.642054 7.832206 8.370976
Li 7.270169 8.106384 8.286220
Li 10.080743 9.018482 8.204406
Li 8.447517 8.208311 8.437565
Li 9.758517 9.589198 6.145053
Li 10.575441 10.271563 9.627936
Li 8.773776 8.466372 9.317611
Li 7.606358 9.962551 7.754993
8
 Atoms. Timestep: 820
Li 6.764493 8.062805 8.448166
Li 7.512525 8.312609 8.427817
Li 10.241356 9.114705 8.293948
Li 8.605854 8.338729 8.597597
Li 9.901473 9.671316 6.277141
Li 10.788369 10.431149 9.781372
Li 9.010823 8.553281 9.545918
Li 7.791766 9.982636 7.925826
8
 Atoms. Timestep: 830
Li 6.910667 8.148358 8.505928
Li 7.732250 8.359208 8.502537
Li 10.541202 9.442081 8.524923
Li 8.792282 8.593491 8.732538
Li 10.029580 9.878544 6.362827
Li 10.969102 10.450576 9.999123
Li 9.100385 8.732683 9.674279
Li 7.878468 10.152588 8.121246
8
 Atoms. Timestep: 840
Li 7.008708 8.294129 8.700406
Li 7.844331 8.616140 8.644455
Li 10.520940 9.581882 8.703073
Li 8.906653 8.797657 8.817050
Li 10.139256 9.974568 6.535095
Li 11.107779 10.675615 10.042067
Li 9.241160 8.852508 9.790162
Li 7.955547 10.275953 8.246567
8
 Atoms. Timestep: 850
Li 7.166312 8.577661 8.812531
Li 8.022378 8.697518 8.781411
Li 10.763689 9.753503 8.789546
Li 9.039418 9.072594 8.979406
Li 10.216315 10.209631 6.724860
Li 11.224014 10.786864 10.317071
Li 9.368294 8.945993 9.996759
Li 8.190133 10.404819 8.648380
8
 Atoms. Timestep: 860
Li 7.393530 8.725676 8.873330
Li 8.177187 8.961495 8.919164
Li 10.903462 9.991364 8.908642
Li 9.221541 9.251160 9.213958
Li 10.452544 10.394369 6.768114
Li 11.326612 10.931961 10.443905
Li 9.581647 9.106195 10.200422
Li 8.273598 10.560526 8.765385
8
 Atoms. Timestep: 870
Li 7.503886 8.889068 8.922760
Li 8.338915 9.063005 9.022315
Li 11.026490 10.066319 9.027490
Li 9.306047 9.498945 9.318937
Li 10.608174 10.501454 6.875695
Li 11.457697 11.000152 10.645912
Li 9.645035 9.092299 10.295818
Li 8.321026 10.668960 8.886020
8
 Atoms. Timestep: 880
Li 7.735229 9.095179 9.083216
Li 8.550112 9.296591 9.183928
Li 11.348011 10.218883 9.217157
Li 9.464412 9.689439 9.446559
Li 10.760294 10.670554 7.081754
Li 11.549898 11.163234 10.781438
Li 9.809141 9.238989 10.439948
Li 8.559563 10.725843 9.156363
8
 Atoms. Timestep: 890
Li 7.843335 9.285574 9.270983
Li 8.663486 9.331622 9.340591
Li 11.464927 10.412743 9.281009
Li 9.557109 9.887125 9.577600
Li 10.817687 10.726445 7.121145
Li 11.725900 11.234989 10.991621
Li 10.098930 9.324061 10.593169
Li 8.732348 10.964783 9.310845
8
 Atoms. Timestep: 900
Li 8.016155 9.484431 9.281240
Li 8.885157 9.524007 9.499909
Li 11.618799 10.701535 9.417071
Li 9.809541 10.028016 9.672017
Li 11.027941 10.812803 7.317195
Li 11.892739 11.372288 11.085276
Li 10.220955 9.483891 10.724213
Li 8.741574 11.074150 9.458775
8
 Atoms. Timestep: 910
Li 8.027650 9.505548 9.371200
Li 9.150174 9.698141 9.622608
Li 11.834089 10.772134 9.607222
Li 9.941667 10.169720 9.892437
Li 11.007859 11.108425 7.504721
Li 11.923347 11.502149 11.240121
Li 10.255898 9.449367 10.895256
Li 8.931423 11.175695 9.714516
8
 Atoms. Timestep: 920
Li 8.285682 9.851383 9.488794
Li 9.273674 9.800630 9.684933
Li 11.959333 10.898853 9.686538
Li 10.000352 10.579472 10.010513
Li 11.249146 11.276743 7.523254
Li 12.039020 11.674204 11.385735
Li 10.454228 9.530487 11.027357
Li 9.008278 11.198336 9.806389
8
 Atoms. Timestep: 930
Li 8.390306 9.962652 9.636935
Li 9.502316 9.979681 9.858175
Li 12.169327 10.977493 9.846168
Li 10.290852 10.697228 10.127647
Li 11.371022 11.365728 7.687412
Li 12.157454 11.683595 11.655466
Li 10.603955 9.677323 11.175576
Li 9.186973 11.397906 10.003139
8
 Atoms. Timestep: 940
Li 8.506868 10.169357 9.715870
Li 9.687608 10.192515 10.000097
Li 12.277965 11.133139 9.971113
Li 10.419310 10.939939 10.298539
Li 11.497134 11.559099 7.768602
Li 12.165129 11.919477 11.723607
Li 10.775323 9.887807 11.315577
Li 9.470924 11.563358 10.218962
8
 Atoms. Timestep: 950
Li 8.613271 10.321923 9.775711
Li 9.903557 10.347591 10.128787
Li 12.463595 11.407032 10.184669
Li 10.471042 11.037606 10.452894
Li 11.661153 11.669353 7.950212
Li 12.455584 11.948643 11.863510
Li 10.996864 9.951922 11.529723
Li 9.407214 11.669792 10.445909
8
 Atoms. Timestep: 960
Li 8.853221 10.515664 9.975511
Li 9.933752 10.393453 10.272161
Li 12.646175 11.526992 10.161655
Li 10.652092 11.307391 10.508723
Li 11.754341 11.744953 8.051887
Li 12.532258 12.169550 12.023385
Li 11.045745 10.077470 11.617446
Li 9.573558 11.862486 10.584691
8
 Atoms. Timestep: 970
Li 8.817484 10.682252 10.039760
Li 10.215303 10.525801 10.373439
Li 12.757259 11.734956 10.369091
Li 10.750991 11.418099 10.572452
Li 11.962307 11.901687 8.147283
Li 12.573031 12.354168 12.168003
Li 11.171282 10.149294 11.767841
Li 9.666204 11.905622 10.676634
8
 Atoms. Timestep: 980
Li 9.141878 10.790612 10.092129
Li 10.351560 10.645181 10.486976
Li 12.917799 11.965040 10.545567
Li 10.899363 11.715896 10.756440
Li 12.024761 12.069267 8.318840
Li 12.726711 12.406095 12.365411
Li 11.357851 10.221648 11.906695
Li 9.818461 12.035838 10.911833
8
 Atoms. Timestep: 990
Li 9.279516 11.055884 10.193366
Li 10.526063 10.856058 10.564144
Li 13.086808 12.074205 10.580714
Li 11.150601 11.893417 10.829054
Li 12.169759 12.257200 8.465726
Li 12.893579 12.464715 12.597542
Li 11.434431 10.347685 12.146500
Li 9.951849 12.216549 11.084657
8
 Atoms. Timestep: 1000
Li 9.332522 11.165921 10.332855
Li 10.643332 11.016530 10.747378
Li 13.296944 12.209380 10.730817
Li 11.073818 12.131207 10.994031
Li 12.342515 12.404449 8.446268
Li 12.986457 12.600551 12.553697
Li 11.589322 10.432462 12.322003
Li 9.966365 12.293377 11.231669
8
 Atoms. Timestep: 1010
Li 9.521363 11.393715 10.494938
Li 10.865427 11.194177 10.831288
Li 13.402006 12.289152 10.799342
Li 11.290556 12.389607 11.198138
Li 12.448966 12.536032 8.563458
Li 13.121134 12.750934 12.783783
Li 11.728555 10.467179 12.438667
Li 10.137698 12.405075 11.410770
8
 Atoms. Timestep: 1020
Li 9.546911 11.420780 10.494021
Li 11.081971 11.272918 11.030350
Li 13.614959 12.523939 10.973951
Li 11.458654 12.577396 11.327748
Li 12.571431 12.711859 8.786231
Li 13.172636 12.910375 12.879770
Li 11.903215 10.649406 12.490478
Li 10.202354 12.474713 11.617613
8
 Atoms. Timestep: 1030
Li 9.716323 11.699648 10.565480
Li 11.273291 11.354143 11.058643
Li 13.784534 12.619167 11.010840
Li 11.680145 12.659409 11.358329
Li 12.649563 12.798689 8.875729
Li 13.368476 12.982593 13.100306
Li 12.044711 10.728187 12.561539
Li 10.403382 12.604804 11.750779
8
 Atoms. Timestep: 1040
Li 9.835764 11.815848 10.721363
Li 11.319235 11.571607 11.259454
Li 13.884095 12.864357 11.228299
Li 11.698747 12.957730 11.582719
Li 12.794268 12.990883 9.006863
Li 13.359587 13.210823 13.200995
Li 12.148099 10.730024 12.754932
Li 10.596479 12.749786 11.861852
8
 Atoms. Timestep: 1050
Li 9.999067 11.970198 10.886620
Li 11.518773 11.643791 11.356937
Li 14.084839 12.851744 11.213727
Li 11.849175 12.981980 11.665998
Li 12.890751 13.090861 9.147676
Li 13.503596 13.257417 13.316532
Li 12.319596 10.861326 12.865186
Li 10.537844 12.763558 12.079119
8
 Atoms. Timestep: 1060
Li 10.087410 12.144972 10.946113
Li 11.701622 11.835026 11.445507
Li 14.167634 13.054925 11.450033
Li 11.871023 13.234858 11.823957
Li 13.038216 13.170447 9.156590
Li 13.621087 13.452601 13.422082
Li 12.337606 10.924365 13.040564
Li 10.751615 12.951569 12.216316
8
 Atoms. Timestep: 1070
Li 10.200149 12.272254 11.019849
Li 11.803485 11.967197 11.565100
Li 14.428201 13.198132 11.605469
Li 12.008024 13.453604 11.827747
Li 13.152756 13.309133 9.339154
Li 13.773693 13.477893 13.593790
Li 12.575179 11.035400 13.166033
Li 10.917689 13.029397 12.300395
8
 Atoms. Timestep: 1080
Li 10.345958 12.484754 11.058821
Li 11.995346 12.066027 11.697467
Li 14.500601 13.371201 11.511641
Li 12.251599 13.525505 11.974063
Li 13.244807 13.458216 9.396325
Li 13.898900 13.442539 13.774183
Li 12.627618 11.105386 13.322784
Li 10.971143 13.117449 12.550654
8
 Atoms. Timestep: 1090
Li 10.459910 12.551591 11.117211
Li 12.097631 12.147108 11.839480
Li 14.723940 13.517844 11.819139
Li 12.302499 13.899088 12.100468
Li 13.359834 13.533740 9.545187
Li 13.941135 13.662867 13.839155
Li 12.752269 11.199091 13.370826
Li 11.229041 13.329233 12.827158
8
 Atoms. Timestep: 1100
Li 10.636015 12.736784 11.218239
Li 12.288686 12.307487 11.941791
Li 14.839035 13.593461 11.964937
Li 12.455287 13.910467 12.197899
Li 13.525733 13.722297 9.622246
Li 13.963144 13.800778 13.977930