# LAMMPS data file for 9 Li atoms

9 atoms
1 atom types

0.0 20.0 xlo xhi
0.0 20.0 ylo yhi
0.0 20.0 zlo zhi

Masses

1 6.94

Atoms

1 1 -1.7138 -2.5707 2.1413
2 1 -3.4276 -0.8569 0.4275
3 1 0.0 -0.8569 0.4275
4 1 0.0 -4.2826 0.4275
5 1 1.7138 0.8569 -1.2844
6 1 3.4276 2.5707 0.4275
7 1 0.0 2.5707 0.4275
8 1 0.0 2.5707 -2.9982
9 1 -1.8571 1.1585 -1.2086
