# LAMMPS data file for 5 Li atoms

5 atoms
1 atom types

0.0 20.0 xlo xhi
0.0 20.0 ylo yhi
0.0 20.0 zlo zhi

Masses

1 6.94

Atoms

1 1 5.000000 5.000000 5.000000
2 1 6.000000 6.000000 6.000000
3 1 7.000000 7.000000 7.000000
4 1 8.000000 8.000000 8.000000
5 1 9.000000 9.000000 9.000000
