5
 Atoms. Timestep: 20
Li 3.77333 3.78188 3.77292
Li 5.38759 5.37797 5.38649
Li 7.00186 7.00087 7.00935
Li 8.61159 8.60823 8.60159
Li 10.2256 10.231 10.2297
5
 Atoms. Timestep: 30
Li 3.78234 3.87649 3.77781
Li 5.38719 5.28129 5.37507
Li 7.01765 7.0067 7.10008
Li 8.6088 8.57185 8.49867
Li 10.204 10.2637 10.2484
5
 Atoms. Timestep: 40
Li 3.78186 3.96301 3.77329
Li 5.39922 5.19582 5.3762
Li 7.01743 6.99663 7.17653
Li 8.62154 8.5509 8.40965
Li 10.1799 10.2936 10.2643
5
 Atoms. Timestep: 50
Li 3.76227 4.0351 3.74982
Li 5.434 5.12879 5.40027
Li 6.9876 6.9574 7.22917
Li 8.66349 8.55868 8.34423
Li 10.1526 10.32 10.2765
5
 Atoms. Timestep: 60
Li 3.72329 4.09443 3.70722
Li 5.49168 5.0786 5.44755
Li 6.9312 6.89207 7.26225
Li 8.73172 8.59229 8.29843
Li 10.1221 10.3426 10.2846
5
 Atoms. Timestep: 70
Li 3.67447 4.14815 3.65495
Li 5.56197 5.03741 5.50791
Li 6.86337 6.81519 7.28685
Li 8.81152 8.63771 8.26182
Li 10.0887 10.3615 10.2885
5
 Atoms. Timestep: 80
Li 3.62466 4.20138 3.60174
Li 5.63408 4.99766 5.57017
Li 6.79577 6.73838 7.31107
Li 8.89276 8.68542 8.22848
Li 10.0527 10.3772 10.2885
5
 Atoms. Timestep: 90
Li 3.57813 4.25594 3.55175
Li 5.69998 4.95192 5.62455
Li 6.73548 6.67035 7.34195
Li 8.9715 8.73171 8.19635
Li 10.0149 10.3901 10.2854
5
 Atoms. Timestep: 100
Li 3.5362 4.31208 3.5063
Li 5.75403 4.89223 5.66205
Li 6.68731 6.61924 7.38716
Li 9.04656 8.77529 8.16448
Li 9.9759 10.4012 10.28
5
 Atoms. Timestep: 110
Li 3.49909 4.36956 3.46556
Li 5.79467 4.81507 5.67875
Li 6.65228 6.58847 7.45009
Li 9.11757 8.81543 8.13192
Li 9.93639 10.4115 10.2737
5
 Atoms. Timestep: 120
Li 3.46667 4.42802 3.42939
Li 5.825 4.72515 5.67914
Li 6.62701 6.57329 7.52603
Li 9.18433 8.85145 8.09757
Li 9.89699 10.4221 10.2679
5
 Atoms. Timestep: 130
Li 3.43878 4.48714 3.39759
Li 5.84908 4.6304 5.67102
Li 6.60724 6.56572 7.60708
Li 9.24682 8.88282 8.06048
Li 9.85808 10.4339 10.2638
5
 Atoms. Timestep: 140
Li 3.41528 4.54659 3.36996
Li 5.86939 4.53658 5.66002
Li 6.59035 6.56002 7.68757
Li 9.30524 8.90944 8.02025
Li 9.81974 10.4474 10.2622
5
 Atoms. Timestep: 150
Li 3.39597 4.60611 3.3463
Li 5.887 4.44651 5.64892
Li 6.5752 6.55337 7.76474
Li 9.36005 8.93179 7.97732
Li 9.78179 10.4622 10.2627
5
 Atoms. Timestep: 160
Li 3.38068 4.66544 3.3264
Li 5.90222 4.36125 5.63874
Li 6.56137 6.54471 7.8376
Li 9.41175 8.9508 7.93282
Li 9.74397 10.4778 10.2644
5
 Atoms. Timestep: 170
Li 3.36922 4.7244 3.31006
Li 5.91516 4.28104 5.62973
Li 6.54875 6.53378 7.90596
Li 9.46085 8.96761 7.88821
Li 9.70602 10.4932 10.266
5
 Atoms. Timestep: 180
Li 3.3614 4.78279 3.29708
Li 5.92581 4.20577 5.62182
Li 6.53728 6.52066 7.97
Li 9.50772 8.98329 7.84498
Li 9.66779 10.5075 10.2661
5
 Atoms. Timestep: 190
Li 3.35702 4.84048 3.28727
Li 5.93419 4.1352 5.61483
Li 6.52693 6.50553 8.03001
Li 9.5526 8.99876 7.80432
Li 9.62926 10.52 10.2636
5
 Atoms. Timestep: 200
Li 3.35592 4.89736 3.28047
Li 5.94032 4.06907 5.60857
Li 6.51765 6.48859 8.08628
Li 9.59563 9.01469 7.76715
Li 9.59048 10.5303 10.2575
5
 Atoms. Timestep: 210
Li 3.35792 4.95331 3.27651
Li 5.94424 4.00713 5.60286
Li 6.50938 6.47004 8.13912
Li 9.63689 9.03157 7.73408
Li 9.55157 10.5379 10.2474
5
 Atoms. Timestep: 220
Li 3.36288 5.00825 3.27526
Li 5.94598 3.94917 5.59753
Li 6.50205 6.45004 8.18881
Li 9.67643 9.04971 7.70549
Li 9.51266 10.5428 10.2329
5
 Atoms. Timestep: 230
Li 3.37066 5.06211 3.2766
Li 5.9456 3.89499 5.59246
Li 6.4956 6.42874 8.23558
Li 9.71425 9.06932 7.68157
Li 9.47388 10.5448 10.2138
5
 Atoms. Timestep: 240
Li 3.38115 5.11482 3.28042
Li 5.94316 3.84443 5.58753
Li 6.48994 6.40627 8.27965
Li 9.75037 9.09049 7.66234
Li 9.43537 10.544 10.1901
5
 Atoms. Timestep: 250
Li 3.39423 5.16632 3.28662
Li 5.9387 3.79734 5.58265
Li 6.48502 6.38271 8.32121
Li 9.78479 9.1132 7.64766
Li 9.39725 10.5404 10.1619
5
 Atoms. Timestep: 260
Li 3.40983 5.21654 3.29515
Li 5.93228 3.75362 5.57772
Li 6.48075 6.35818 8.36042
Li 9.81756 9.13733 7.63718
Li 9.35958 10.5343 10.1295
5
 Atoms. Timestep: 270
Li 3.42786 5.26543 3.30592
Li 5.92392 3.71318 5.57267
Li 6.47709 6.33274 8.39743
Li 9.84876 9.16259 7.63033
Li 9.32237 10.5261 10.0936
5
 Atoms. Timestep: 280
Li 3.44826 5.31292 3.3189
Li 5.91366 3.67596 5.56744
Li 6.47397 6.30647 8.43236
Li 9.87858 9.18853 7.62617
Li 9.28552 10.5161 10.0551
5
 Atoms. Timestep: 290
Li 3.47099 5.35895 3.33406
Li 5.90153 3.64191 5.56195
Li 6.47134 6.27942 8.46531
Li 9.90735 9.21446 7.62336
Li 9.24878 10.5053 10.0153
5
 Atoms. Timestep: 300
Li 3.49602 5.40344 3.35138
Li 5.88755 3.611 5.55616
Li 6.46916 6.25165 8.49638
Li 9.93559 9.23949 7.62014
Li 9.21169 10.4944 9.97594
5
 Atoms. Timestep: 310
Li 3.52331 5.44631 3.37084
Li 5.87173 3.58324 5.54998
Li 6.46737 6.22321 8.52565
Li 9.96397 9.26261 7.61452
Li 9.17361 10.4846 9.93901
5
 Atoms. Timestep: 320
Li 3.55287 5.48748 3.39246
Li 5.85406 3.55863 5.54336
Li 6.46594 6.19414 8.55319
Li 9.99325 9.28296 7.60472
Li 9.13388 10.4768 9.90627
5
 Atoms. Timestep: 330
Li 3.5847 5.52683 3.41626
Li 5.83454 3.53721 5.53623
Li 6.46482 6.16447 8.57904
Li 10.0239 9.30014 7.58984
Li 9.092 10.4713 9.87863
5
 Atoms. Timestep: 340
Li 3.61882 5.56426 3.44228
Li 5.81313 3.51906 5.5285
Li 6.46398 6.13423 8.60325
Li 10.0561 9.31437 7.57018
Li 9.04794 10.4681 9.85578
5
 Atoms. Timestep: 350
Li 3.65526 5.59963 3.47058
Li 5.78982 3.50424 5.5201
Li 6.46336 6.10346 8.62587
Li 10.0894 9.32644 7.54713
Li 9.00215 10.4662 9.83633
5
 Atoms. Timestep: 360
Li 3.69408 5.63278 3.50123
Li 5.76455 3.49287 5.51092
Li 6.46294 6.07215 8.64691
Li 10.123 9.33734 7.52258
Li 8.95541 10.4649 9.81837
5
 Atoms. Timestep: 370
Li 3.73535 5.66351 3.53431
Li 5.73725 3.48511 5.50085
Li 6.46268 6.04035 8.66639
Li 10.1561 9.34801 7.49837
Li 8.90861 10.463 9.80007
5
 Atoms. Timestep: 380
Li 3.77915 5.69162 3.56996
Li 5.70785 3.48113 5.48978
Li 6.46252 6.00806 8.68434
Li 10.1879 9.3592 7.47596
Li 8.86255 10.46 9.77996
5
 Atoms. Timestep: 390
Li 3.82559 5.71683 3.60831
Li 5.67626 3.48116 5.47754
Li 6.46244 5.97529 8.70075
Li 10.2178 9.37141 7.45638
Li 8.81788 10.4553 9.75701
5
 Atoms. Timestep: 400
Li 3.87479 5.73885 3.64953
Li 5.64235 3.48548 5.46398
Li 6.4624 5.94207 8.71563
Li 10.2454 9.38494 7.44028
Li 8.77509 10.4487 9.73057
5
 Atoms. Timestep: 410
Li 3.9269 5.75731 3.69382
Li 5.606 3.49442 5.4489
Li 6.46236 5.90841 8.72898
Li 10.2702 9.39997 7.42802
Li 8.73453 10.4399 9.70028
5
 Atoms. Timestep: 420
Li 3.98208 5.77182 3.7414
Li 5.56707 3.50834 5.4321
Li 6.46228 5.87432 8.74078
Li 10.2921 9.41655 7.41975
Li 8.69644 10.429 9.66597
5
 Atoms. Timestep: 430
Li 4.04044 5.78196 3.79248
Li 5.52546 3.52764 5.41338
Li 6.46212 5.83983 8.75102
Li 10.311 9.43467 7.41545
Li 8.66095 10.4159 9.62766
5
 Atoms. Timestep: 440
Li 4.10204 5.7874 3.8472
Li 5.48114 3.55261 5.39265
Li 6.46185 5.80495 8.75967
Li 10.3269 9.45425 7.41498
Li 8.62807 10.4008 9.5855
5
 Atoms. Timestep: 450
Li 4.16669 5.78816 3.90544
Li 5.43434 3.58323 5.37003
Li 6.46143 5.7697 8.76671
Li 10.3399 9.47512 7.41799
Li 8.59769 10.3838 9.53984
5
 Atoms. Timestep: 460
Li 4.2336 5.78528 3.96641
Li 5.38585 3.61841 5.34637
Li 6.4608 5.73411 8.77208
Li 10.3502 9.49704 7.42394
Li 8.56951 10.3652 9.4912
5
 Atoms. Timestep: 470
Li 4.30073 5.78239 4.02774
Li 5.33777 3.65449 5.32408
Li 6.45994 5.69821 8.77576
Li 10.3586 9.51966 7.43203
Li 8.54294 10.3453 9.4404
5
 Atoms. Timestep: 480
Li 4.36392 5.78816 4.08423
Li 5.29428 3.68279 5.30841
Li 6.45879 5.66201 8.77769
Li 10.366 9.5425 7.44114
Li 8.51706 10.3245 9.38854
5
 Atoms. Timestep: 490
Li 4.41773 5.81581 4.12846
Li 5.26086 3.69006 5.30684
Li 6.45731 5.62553 8.77781
Li 10.3735 9.56499 7.44984
Li 8.49056 10.3036 9.33706
5
 Atoms. Timestep: 500
Li 4.46013 5.87276 4.15687
Li 5.23958 3.66886 5.32298
Li 6.45545 5.58879 8.77606
Li 10.3829 9.58655 7.45659
Li 8.46189 10.283 9.2875
5
 Atoms. Timestep: 510
Li 4.49495 5.95148 4.17418
Li 5.22664 3.62675 5.3522
Li 6.45317 5.55177 8.77238
Li 10.3957 9.6067 7.46007
Li 8.42957 10.2633 9.24117
5
 Atoms. Timestep: 520
Li 4.52728 6.03861 4.18766
Li 5.21699 3.5771 5.38727
Li 6.45044 5.51444 8.76672
Li 10.4126 9.62524 7.45965
Li 8.39272 10.2446 9.19871
5
 Atoms. Timestep: 530
Li 4.55994 6.12522 4.20186
Li 5.20783 3.52888 5.42371
Li 6.4472 5.47676 8.75899
Li 10.4335 9.64236 7.45564
Li 8.35152 10.2268 9.15979
5
 Atoms. Timestep: 540
Li 4.59393 6.20734 4.21865
Li 5.1982 3.48609 5.45974
Li 6.44342 5.43869 8.74914
Li 10.4574 9.65848 7.44914
Li 8.30707 10.2094 9.12333
5
 Atoms. Timestep: 550
Li 4.62944 6.28368 4.2386
Li 5.18796 3.45009 5.49488
Li 6.43904 5.40017 8.73706
Li 10.4825 9.6741 7.44155
Li 8.26106 10.192 9.08791
5
 Atoms. Timestep: 560
Li 4.66637 6.35402 4.26172
Li 5.17727 3.42114 5.52923
Li 6.43399 5.36114 8.72265
Li 10.5072 9.68967 7.43421
Li 8.21518 10.174 9.0522
5
 Atoms. Timestep: 570
Li 4.70455 6.41858 4.28788
Li 5.16637 3.3991 5.56306
Li 6.4282 5.32154 8.70576
Li 10.53 9.70548 7.42811
Li 8.17089 10.1553 9.01519
5
 Atoms. Timestep: 580
Li 4.74382 6.47768 4.3169
Li 5.1555 3.38372 5.59673
Li 6.42158 5.28127 8.68624
Li 10.5498 9.72173 7.42394
Li 8.1293 10.1356 8.97619
5
 Atoms. Timestep: 590
Li 4.78405 6.53164 4.34864
Li 5.14489 3.37478 5.63057
Li 6.41402 5.24025 8.66389
Li 10.5659 9.73849 7.42211
Li 8.09116 10.1148 8.93479
5
 Atoms. Timestep: 600
Li 4.8251 6.58074 4.38298
Li 5.13479 3.37212 5.66498
Li 6.40541 5.19835 8.63845
Li 10.5777 9.75577 7.42279
Li 8.05697 10.093 8.8908
5
 Atoms. Timestep: 610
Li 4.8669 6.6252 4.41982
Li 5.12544 3.37565 5.70033
Li 6.39558 5.15544 8.60964
Li 10.585 9.77354 7.42605
Li 8.02703 10.0702 8.84416
5
 Atoms. Timestep: 620
Li 4.90937 6.66517 4.45912
Li 5.11709 3.38537 5.73705
Li 6.38436 5.11135 8.5771
Li 10.5877 9.79174 7.43182
Li 8.00144 10.0464 8.79492
5
 Atoms. Timestep: 630
Li 4.95245 6.70077 4.50089
Li 5.11003 3.40138 5.77558
Li 6.37153 5.0659 8.54037
Li 10.5858 9.81029 7.43995
Li 7.98018 10.0217 8.74321
5
 Atoms. Timestep: 640
Li 4.99611 6.73202 4.54513
Li 5.10456 3.42385 5.81643
Li 6.35681 5.01884 8.49895
Li 10.5795 9.82908 7.45022
Li 7.96299 9.99619 8.68927
5
 Atoms. Timestep: 650
Li 5.04031 6.75892 4.59194
Li 5.10104 3.45307 5.86016
Li 6.33989 4.96995 8.45223
Li 10.5694 9.84803 7.46227
Li 7.9494 9.97002 8.63341
5
 Atoms. Timestep: 660
Li 5.08502 6.78138 4.6414
Li 5.09984 3.48931 5.90728
Li 6.32043 4.91901 8.39959
Li 10.5561 9.86703 7.47564
Li 7.93858 9.94326 8.57609
5
 Atoms. Timestep: 670
Li 5.13024 6.79925 4.69369
Li 5.10121 3.53278 5.95806
Li 6.29821 4.86598 8.34063
Li 10.5411 9.886 7.48973
Li 7.92929 9.91599 8.51789
5
 Atoms. Timestep: 680
Li 5.17595 6.81231 4.74901
Li 5.10489 3.58313 6.01167
Li 6.2735 4.81143 8.27599
Li 10.5259 9.90488 7.50382
Li 7.91979 9.88825 8.45951
5
 Atoms. Timestep: 690
Li 5.22215 6.82024 4.80766
Li 5.10887 3.63828 6.06389
Li 6.24834 4.75779 8.20963
Li 10.5126 9.92368 7.51716
Li 7.90804 9.86001 8.40167
5
 Atoms. Timestep: 700
Li 5.26884 6.82263 4.86994
Li 5.10649 3.69194 6.10198
Li 6.22941 4.71175 8.15398
Li 10.5032 9.94251 7.52913
Li 7.89203 9.83118 8.34497
5
 Atoms. Timestep: 710
Li 5.316 6.81901 4.93623
Li 5.08531 3.73361 6.1033
Li 6.2292 4.68432 8.13139
Li 10.499 9.96146 7.53943
Li 7.87049 9.8016 8.28965
5
 Atoms. Timestep: 720
Li 5.36354 6.80888 5.00679
Li 5.03937 3.75985 6.05785
Li 6.25378 4.6795 8.15161
Li 10.4999 9.98064 7.5482
Li 7.84338 9.77113 8.23555
5
 Atoms. Timestep: 730
Li 5.41133 6.79179 5.08177
Li 4.9788 3.78028 5.98391
Li 6.29321 4.68818 8.19626
Li 10.5048 10 7.5559
Li 7.81189 9.73971 8.18216
5
 Atoms. Timestep: 740
Li 5.4592 6.76739 5.1612
Li 4.91536 3.80427 5.9017
Li 6.33594 4.70143 8.24513
Li 10.5115 10.0195 7.5631
Li 7.778 9.70738 8.12888
5
 Atoms. Timestep: 750
Li 5.50698 6.73554 5.24503
Li 4.85465 3.83559 5.82044
Li 6.3766 4.71573 8.28911
Li 10.518 10.0389 7.57028
Li 7.74379 9.67423 8.07513
5
 Atoms. Timestep: 760
Li 5.5546 6.69647 5.3332
Li 4.79846 3.87484 5.74306
Li 6.41355 4.73041 8.32541
Li 10.5224 10.0579 7.57779
Li 7.71101 9.64038 8.02053
5
 Atoms. Timestep: 770
Li 5.60224 6.65108 5.42565
Li 4.74699 3.921 5.67028
Li 6.44648 4.7457 8.35343
Li 10.5233 10.0763 7.5858
Li 7.68096 9.60591 7.96484
5
 Atoms. Timestep: 780
Li 5.65055 6.60139 5.52241
Li 4.69959 3.97171 5.60218
Li 6.47548 4.76216 8.37313
Li 10.5199 10.0939 7.59434
Li 7.65449 9.57085 7.90793
5
 Atoms. Timestep: 790
Li 5.70095 6.55086 5.62384
Li 4.65479 4.02312 5.5385
Li 6.50069 4.78039 8.38451
Li 10.5115 10.1105 7.60339
Li 7.63211 9.53517 7.84976
5
 Atoms. Timestep: 800
Li 5.75567 6.50387 5.73087
Li 4.6104 4.07044 5.47856
Li 6.52223 4.80104 8.3874
Li 10.4977 10.1259 7.61286
Li 7.61404 9.49877 7.79031
5
 Atoms. Timestep: 810
Li 5.81692 6.46376 5.84491
Li 4.56426 4.11006 5.42124
Li 6.54016 4.82472 8.38161
Li 10.4783 10.14 7.62263
Li 7.60032 9.46147 7.72961
5
 Atoms. Timestep: 820
Li 5.88534 6.43057 5.96694
Li 4.51574 4.14197 5.36559
Li 6.55466 4.85178 8.36724
Li 10.4535 10.1527 7.63257
Li 7.59079 9.42299 7.66766
5
 Atoms. Timestep: 830
Li 5.95917 6.40196 6.09554
Li 4.46625 4.16963 5.31155
Li 6.5663 4.88159 8.34586
Li 10.4231 10.1639 7.64256
Li 7.58515 9.38291 7.6045
5
 Atoms. Timestep: 840
Li 6.03431 6.37838 6.22334
Li 4.41826 4.1974 5.25997
Li 6.577 4.90999 8.32413
Li 10.3875 10.1736 7.65244
Li 7.58292 9.34067 7.54012
5
 Atoms. Timestep: 850
Li 6.10405 6.37043 6.33059
Li 4.37389 4.22836 5.21194
Li 6.59163 4.92402 8.32081
Li 10.347 10.1816 7.66211
Li 7.58343 9.29557 7.47455
5
 Atoms. Timestep: 860
Li 6.16126 6.39664 6.39059
Li 4.33437 4.26396 5.16817
Li 6.61642 4.90447 8.36196
Li 10.3021 10.1882 7.67145
Li 7.58587 9.24678 7.40782
5
 Atoms. Timestep: 870
Li 6.20679 6.45688 6.40519
Li 4.30011 4.30455 5.12886
Li 6.65051 4.8519 8.44566
Li 10.2534 10.1933 7.68042
Li 7.58922 9.19343 7.33988
5
 Atoms. Timestep: 880
Li 6.24725 6.53226 6.40098
Li 4.27097 4.35 5.09378
Li 6.68773 4.78594 8.54565
Li 10.2016 10.1971 7.68899
Li 7.5924 9.13473 7.2706
5
 Atoms. Timestep: 890
Li 6.28652 6.60988 6.39484
Li 4.24668 4.40002 5.06256
Li 6.72457 4.71974 8.64537
Li 10.1476 10.1998 7.69717
Li 7.59465 9.07058 7.20005
5
 Atoms. Timestep: 900
Li 6.32472 6.68338 6.39144
Li 4.22691 4.45426 5.03486
Li 6.76009 4.6577 8.73974
Li 10.0917 10.2016 7.70499
Li 7.59654 9.00309 7.12896
5
 Atoms. Timestep: 910
Li 6.35778 6.74416 6.38919
Li 4.21134 4.51243 5.01036
Li 6.7943 4.6006 8.82807
Li 10.0345 10.2025 7.7125
Li 7.60206 8.94027 7.05988
5
 Atoms. Timestep: 920
Li 6.37568 6.77516 6.38254
Li 4.19977 4.57429 4.98883
Li 6.82736 4.54816 8.91088
Li 9.9765 10.2029 7.71979
Li 7.62069 8.89945 6.99796
5
 Atoms. Timestep: 930
Li 6.36823 6.76045 6.36647
Li 4.19218 4.63976 4.97019
Li 6.85943 4.49986 8.98884
Li 9.91949 10.2037 7.72742
Li 7.66067 8.8962 6.94708
5
 Atoms. Timestep: 940
Li 6.33832 6.70671 6.34271
Li 4.18875 4.70895 4.95453
Li 6.89062 4.45517 9.0625
Li 9.86849 10.2079 7.73718
Li 7.71382 8.92128 6.90308
5
 Atoms. Timestep: 950
Li 6.29684 6.63325 6.31611
Li 4.18989 4.78208 4.94207
Li 6.92097 4.41366 9.13228
Li 9.83288 10.2211 7.75301
Li 7.75943 8.94992 6.85653
5
 Atoms. Timestep: 960
Li 6.25096 6.55243 6.28931
Li 4.19584 4.85921 4.93299
Li 6.95049 4.37493 9.19849
Li 9.82118 10.2488 7.77925
Li 7.78152 8.9646 6.79996
5
 Atoms. Timestep: 970
Li 6.20411 6.46985 6.26341
Li 4.20614 4.93972 4.92695
Li 6.9792 4.33867 9.26143
Li 9.83115 10.2901 7.81587
Li 7.7794 8.9617 6.73234
5
 Atoms. Timestep: 980
Li 6.15995 6.38958 6.24022
Li 4.21803 5.02135 4.92215
Li 7.00712 4.30459 9.32133
Li 9.85195 10.3381 7.85816
Li 7.76295 8.94634 6.65814
5
 Atoms. Timestep: 990
Li 6.12626 6.31761 6.22461
Li 4.224 5.09879 4.91344
Li 7.03428 4.27247 9.37842
Li 9.87425 10.3871 7.90131
Li 7.74121 8.92402 6.58222
5
 Atoms. Timestep: 1000
Li 6.11567 6.2619 6.22505
Li 4.21145 5.16444 4.89207
Li 7.06069 4.2421 9.43289
Li 9.89346 10.4339 7.94258
Li 7.71873 8.89769 6.50741
5
 Atoms. Timestep: 1010
Li 6.13584 6.22599 6.24685
Li 4.17267 5.21493 4.85241
Li 7.08639 4.21335 9.4849
Li 9.90806 10.4773 7.98084
Li 7.69705 8.86844 6.435
