9
 Atoms. Timestep: 100
Li -1.49198 -1.86504 1.76966
Li -1.52168 -0.107571 -0.366692
Li 0.704927 -0.211278 1.40825
Li 0.227785 -2.26854 -0.424014
Li 1.06931 0.242907 -1.31663
Li 2.56834 1.66717 0.535218
Li -0.168197 2.19843 0.356626
Li -0.977118 1.85238 -2.28875
Li 1.52479 2.96856 -1.70906
9
 Atoms. Timestep: 150
Li -1.52679 -1.75894 1.76981
Li -1.52925 -0.136757 -0.336219
Li 0.656105 -0.157383 1.39252
Li 0.265398 -2.2738 -0.391341
Li 1.06306 0.149156 -1.3715
Li 2.47468 1.52409 0.493319
Li -0.223888 2.14806 0.355191
Li -0.883873 1.79703 -2.24856
Li 1.51063 2.92779 -1.58606
9
 Atoms. Timestep: 200
Li -1.69401 -1.70233 1.88532
Li -1.57507 -0.173987 -0.427397
Li 0.521235 -0.221336 1.43017
Li 0.292687 -2.34797 -0.229257
Li 1.10572 -0.0308154 -1.48592
Li 2.50218 1.30045 0.487114
Li -0.33837 2.15834 0.442102
Li -0.830335 1.70647 -2.29599
Li 1.50934 2.91092 -1.45843
9
 Atoms. Timestep: 250
Li -1.97394 -1.6118 1.91538
Li -1.51238 -0.351569 -0.45947
Li 0.365039 -0.221002 1.49762
Li 0.215606 -2.48042 -0.00978867
Li 1.08655 -0.184755 -1.47082
Li 2.49897 1.00198 0.458123
Li -0.413017 2.06976 0.422254
Li -0.737485 1.63107 -2.30444
Li 1.49038 2.80813 -1.29136
9
 Atoms. Timestep: 300
Li -2.26201 -1.45085 1.87894
Li -1.53491 -0.500205 -0.54655
Li 0.249631 -0.275786 1.69704
Li 0.131133 -2.6018 0.219726
Li 1.0019 -0.477104 -1.41462
Li 2.49076 0.673252 0.513251
Li -0.592349 1.91725 0.371995
Li -0.673975 1.51834 -2.3006
Li 1.60772 2.66604 -1.14102
9
 Atoms. Timestep: 350
Li -2.52122 -1.22844 1.86957
Li -1.66674 -0.636389 -0.614216
Li 0.0685807 -0.314637 1.82236
Li 0.0394653 -2.64635 0.474246
Li 0.982226 -0.789583 -1.41791
Li 2.39371 0.25714 0.620086
Li -0.714503 1.75436 0.365065
Li -0.487005 1.33917 -2.3384
Li 1.63512 2.37033 -0.907189
9
 Atoms. Timestep: 400
Li -2.80053 -0.938344 1.88944
Li -1.63626 -0.788611 -0.636885
Li -0.171124 -0.274834 1.97372
Li -0.0688561 -2.65459 0.640836
Li 0.939224 -1.1306 -1.45904
Li 2.24871 -0.311349 0.748729
Li -0.906344 1.6689 0.287707
Li -0.250391 1.09678 -2.35835
Li 1.6482 1.99796 -0.583532
9
 Atoms. Timestep: 450
Li -3.08674 -0.536514 1.77597
Li -1.58587 -0.92023 -0.529847
Li -0.34318 -0.0761741 2.05229
Li -0.0492058 -2.66235 0.819709
Li 0.990692 -1.56895 -1.59923
Li 1.95778 -1.07627 0.899985
Li -1.20745 1.66188 0.138869
Li -0.0528509 0.894919 -2.2934
Li 1.66416 1.53187 -0.142876
9
 Atoms. Timestep: 500
Li -3.21762 0.0345721 1.5136
Li -1.41441 -1.00362 -0.43198
Li -0.442365 0.117338 1.86287
Li -0.418897 -3.05689 1.07321
Li 0.955699 -1.96654 -1.71414
Li 2.01168 -1.49996 1.00014
Li -1.43941 1.73673 -0.0539164
Li 0.221594 0.648961 -1.99027
Li 1.37711 0.942112 0.427708
9
 Atoms. Timestep: 550
Li -3.33141 0.64174 1.1286
Li -1.20253 -1.09732 -0.323614
Li -0.878972 -0.0845346 2.16877
Li -0.724717 -3.34022 1.26314
Li 0.890304 -2.34634 -1.55079
Li 1.79179 -2.13029 0.956549
Li -1.48689 1.79683 -0.327469
Li 0.515042 0.439235 -1.80187
Li 1.51364 0.989632 0.647285
9
 Atoms. Timestep: 600
Li -3.60083 1.02307 0.814728
Li -1.09717 -1.09146 -0.0994242
Li -1.04385 -0.135846 2.36809
Li -1.0083 -3.43759 1.37046
Li 0.741562 -2.67707 -1.67366
Li 1.37939 -2.39536 1.02843
Li -1.03725 1.68993 -0.64823
Li 0.89483 0.188805 -1.72376
Li 1.45533 0.906776 1.07224
9
 Atoms. Timestep: 650
Li -3.44554 1.28248 0.478037
Li -0.888409 -1.10498 -0.0680399
Li -1.15818 0.096707 2.42761
Li -1.51148 -3.48982 1.43855
Li 0.47794 -2.8031 -1.88417
Li 1.09004 -2.13253 1.02906
Li -0.665643 1.45688 -0.630864
Li 1.49549 -0.273194 -1.40465
Li 1.05918 0.582536 1.32259
9
 Atoms. Timestep: 700
Li -2.89953 1.38632 0.185424
Li -1.33953 -1.12897 -0.241571
Li -1.74812 0.36617 2.359
Li -1.66939 -3.21679 1.35116
Li 0.226402 -2.74901 -1.87671
Li 1.08639 -2.32738 1.07037
Li -0.385822 1.46584 -0.625127
Li 2.03381 -0.720078 -0.853465
Li 1.1066 0.454514 1.37589
9
 Atoms. Timestep: 750
Li -2.70785 1.57456 -0.330927
Li -1.64887 -0.815641 -0.302459
Li -1.88907 0.485099 2.15986
Li -1.67058 -3.01716 1.3792
Li 0.108218 -2.48028 -1.649
Li 0.825734 -2.70246 0.960116
Li 0.156512 1.41002 -0.809851
Li 2.41437 -1.01231 -0.531879
Li 0.969838 0.380993 1.7423
9
 Atoms. Timestep: 800
Li -2.70144 2.06742 -0.893745
Li -1.57848 -0.627374 -0.263595
Li -1.81007 0.656856 1.93924
Li -2.01506 -2.82243 1.47561
Li 0.15051 -2.03088 -1.62011
Li 0.853419 -2.81649 0.934458
Li 0.692521 0.957612 -0.839306
Li 2.53898 -0.988662 -0.238831
Li 0.754564 0.0738631 1.84104
9
 Atoms. Timestep: 850
Li -2.48045 2.2922 -1.17388
Li -1.55395 -0.501678 -0.273748
Li -1.9684 1.27682 1.89876
Li -2.01759 -2.40767 1.45664
Li 0.586414 -1.67343 -1.91783
Li 0.56431 -2.79791 0.968551
Li 0.731937 0.668577 -0.864698
Li 2.80745 -1.06097 0.0886106
Li 0.697583 -0.370376 1.73504
9
 Atoms. Timestep: 900
Li -2.08213 2.1963 -1.12491
Li -1.56233 -0.262616 -0.311903
Li -1.84197 1.86711 1.51853
Li -2.01434 -2.06313 1.7209
Li 1.07433 -1.69538 -2.08479
Li 0.369519 -3.00093 0.40093
Li 0.716321 1.12262 -0.790059
Li 3.03124 -1.31345 0.357591
Li 0.280612 -0.228511 1.70864
9
 Atoms. Timestep: 950
Li -1.69531 2.27946 -1.47935
Li -1.62402 -0.46993 -0.414554
Li -1.37459 2.26616 1.34919
Li -1.82532 -1.79135 2.02781
Li 1.5526 -1.47069 -1.99207
Li 0.0939114 -2.85535 -0.24727
Li 0.714227 1.4089 -0.596907
Li 2.74102 -1.40423 0.489194
Li 0.0717064 0.0121247 1.66799
9
 Atoms. Timestep: 1000
Li -1.48417 2.32041 -1.92196
Li -1.70797 -0.471188 -0.543103
Li -0.852006 2.65436 1.15641
Li -1.53459 -1.76266 2.127
Li 1.94578 -0.91081 -2.08245
Li -0.279778 -2.64446 -0.546298
Li 0.746823 1.35418 -0.534466
Li 2.10914 -1.30338 0.660664
Li 0.425216 0.153565 1.87033
9
 Atoms. Timestep: 1050
Li -1.32323 2.17058 -1.96758
Li -1.7687 0.196475 -0.307224
Li -0.458822 2.98483 0.794079
Li -1.01989 -1.78921 1.81581
Li 2.14483 -0.468979 -2.26702
Li -0.27651 -2.62385 -0.706749
Li 0.768758 1.02255 -0.661651
Li 1.67228 -1.36259 0.480863
Li 0.325395 0.638446 2.40373
9
 Atoms. Timestep: 1100
Li -1.22386 2.19505 -1.92747
Li -1.82495 0.407375 0.520643
Li -0.209152 3.23754 0.386504
Li -0.499764 -1.68219 1.52221
Li 2.42638 -0.520261 -2.62655
Li -0.607075 -2.51947 -1.22164
Li 0.751501 0.935847 -0.478135
Li 1.77393 -1.28715 0.330078
Li 0.1061 1.24758 2.53443
9
 Atoms. Timestep: 1150
Li -1.34966 2.09473 -1.76757
Li -2.04516 0.615778 1.20241
Li -0.125139 3.62606 0.238387
Li -0.206326 -1.60901 1.53991
Li 2.42613 -0.608131 -2.67398
Li -0.936109 -2.21294 -1.75547
Li 0.785049 0.860999 -0.53964
Li 2.6161 -1.50104 0.0227001
Li 0.0473198 1.77628 2.32421
9
 Atoms. Timestep: 1200
Li -1.63113 1.84249 -1.35316
Li -2.31454 0.60173 1.43457
Li -0.0508337 3.81554 0.016487
Li 0.293303 -1.36283 1.2471
Li 2.13712 -0.664528 -2.58169
Li -1.14837 -1.69218 -2.03769
Li 0.729219 0.49235 -0.356403
Li 3.17663 -1.47123 -0.248822
Li 0.394846 2.22244 2.14694
9
 Atoms. Timestep: 1250
Li -1.88107 1.46714 -0.683582
Li -2.13082 0.462775 1.58376
Li -0.0389281 3.79709 -0.4347
Li 0.708034 -1.65629 1.31116
Li 1.55649 -0.703702 -2.60454
Li -1.17533 -0.950872 -2.04775
Li 0.656338 0.805045 -0.635037
Li 3.45314 -1.25206 -0.265501
Li 0.642668 2.21934 1.8668
9
 Atoms. Timestep: 1300
Li -2.29335 1.63215 -0.42084
Li -1.64393 -0.0559642 2.26903
Li -0.105767 3.49332 -0.864552
Li 1.13282 -1.84997 1.2131
Li 1.24667 -0.964384 -2.70809
Li -1.26038 -0.308509 -1.88294
Li 0.747568 1.05819 -0.824747
Li 3.30322 -0.81599 -0.314668
Li 0.685445 2.04274 1.60549
9
 Atoms. Timestep: 1350
Li -2.58927 2.08972 0.200696
Li -0.901532 -0.562469 2.71894
Li -0.361643 3.33322 -1.15483
Li 1.39231 -1.84276 0.977755
Li 1.25837 -1.35113 -2.75208
Li -1.60471 -0.177906 -1.82427
Li 0.909906 0.839776 -1.15414
Li 3.05018 -0.269118 -0.455719
Li 0.498067 1.85407 1.65437
9
 Atoms. Timestep: 1400
Li -2.55632 2.34952 0.79504
Li -0.0363217 -1.01121 2.89816
Li -0.799121 3.25243 -1.23504
Li 1.3523 -1.71904 0.724309
Li 1.24517 -1.73428 -2.6311
Li -1.9729 -0.144906 -1.63115
Li 0.497392 0.816216 -1.29601
Li 3.45271 0.0148512 -0.53635
Li 0.138676 1.43585 1.40847
9
 Atoms. Timestep: 1450
Li -2.4034 2.42933 1.28887
Li 0.665772 -1.33101 3.02656
Li -1.34079 3.26198 -1.14203
Li 1.36415 -1.40312 0.168654
Li 1.20907 -1.92977 -2.28049
Li -2.40409 -0.207072 -1.30346
Li 0.565068 0.392706 -1.34379
Li 3.42359 0.261784 -0.627
Li -0.232882 0.843383 1.12006
9
 Atoms. Timestep: 1500
Li -2.38669 2.41236 1.68972
Li 1.16525 -1.51729 3.00275
Li -1.68184 2.9445 -0.974384
Li 1.55326 -1.44948 0.467276
Li 1.23122 -2.36663 -2.48701
Li -2.47517 -0.206109 -0.807803
Li 0.306653 0.700136 -1.82473
Li 3.07451 0.502407 -0.758192
Li -0.526449 0.137909 1.10649
9
 Atoms. Timestep: 1550
Li -2.28684 2.12192 1.92682
Li 1.32969 -1.59792 3.23587
Li -1.81718 2.33934 -0.760063
Li 1.76774 -1.67585 0.163987
Li 1.23737 -2.50576 -2.52237
Li -2.54041 -0.135064 -0.586561
Li -0.0651157 0.81934 -1.92758
Li 2.51394 0.775623 -0.943626
Li -0.533187 -0.28096 1.39412
9
 Atoms. Timestep: 1600
Li -2.13027 1.52891 2.10728
Li 1.35536 -1.67452 3.27674
Li -1.89255 2.38298 -0.473696
Li 1.7556 -1.80459 0.0271662
Li 1.19159 -2.38062 -2.50861
Li -2.72146 -0.521299 -0.561922
Li -0.415243 0.387761 -1.96418
Li 2.04019 0.997064 -1.00722
Li -0.255135 -0.398079 1.67155
9
 Atoms. Timestep: 1650
Li -2.25185 0.993111 2.28646
Li 1.47962 -1.92386 3.31717
Li -1.78 2.42374 -0.29431
Li 1.67098 -1.69514 0.229606
Li 1.02021 -2.04116 -2.65571
Li -2.7218 -0.972655 -0.310313
Li -0.77864 -0.253255 -1.91483
Li 1.69406 0.999908 -0.833056
Li -0.0587162 -0.30917 1.3081
9
 Atoms. Timestep: 1700
Li -2.65388 0.638071 2.22504
Li 1.3534 -2.03959 2.99996
Li -1.42677 2.07318 -0.0710918
Li 2.00561 -1.94491 0.0284965
Li 1.20976 -1.82329 -2.73994
Li -2.74033 -1.38859 0.335937
Li -0.99659 -0.332957 -1.54888
Li 1.26886 0.800764 -0.710125
Li -0.331964 0.0783815 1.12051
9
 Atoms. Timestep: 1750
Li -3.2842 0.570725 2.12392
Li 1.03541 -2.0588 2.39433
Li -1.14978 2.0982 -0.0616115
Li 2.07358 -2.01296 -0.103091
Li 1.49732 -1.53567 -2.67279
Li -2.57452 -1.88013 0.878821
Li -1.32261 -0.423866 -1.12232
Li 1.3762 0.698958 -1.01186
Li -0.441041 -0.341854 1.62784
9
 Atoms. Timestep: 1800
Li -3.69378 0.622416 1.86128
Li 1.09443 -2.81927 2.27492
Li -0.799345 2.20038 -0.00883375
Li 2.02589 -1.9096 -0.17207
Li 1.60183 -1.29183 -2.866
Li -2.35641 -2.47508 1.23124
Li -1.34566 -0.658814 -0.771206
Li 1.29071 0.649273 -0.924008
Li -0.945363 0.127424 1.72037
9
 Atoms. Timestep: 1850
Li -3.88826 0.599672 1.39401
Li 0.807001 -3.41087 2.19473
Li -0.676605 2.42486 0.00502099
Li 1.85659 -1.85371 -0.238476
Li 1.59277 -1.19317 -3.15623
Li -1.95099 -2.77741 1.42278
Li -1.10962 -0.82451 -0.532616
Li 1.26448 0.619489 -0.643494
Li -1.19975 0.510475 2.05285
9
 Atoms. Timestep: 1900
Li -3.88648 0.555645 0.817218
Li 0.632714 -3.80795 2.00326
Li -0.820593 2.69175 0.0735666
Li 1.51368 -2.26418 -0.179241
Li 1.48597 -1.02279 -3.05844
Li -1.7148 -2.70851 1.35324
Li -0.732057 -0.840175 -0.157025
Li 1.41866 0.752982 -0.567265
Li -1.20655 0.728036 2.21764
9
 Atoms. Timestep: 1950
Li -3.46096 0.508744 0.274241
Li 0.807774 -4.1834 1.94403
Li -0.866527 2.62624 0.131257
Li 1.24085 -2.6337 -0.224167
Li 1.2879 -0.837015 -2.55984
Li -2.07525 -2.53023 1.18497
Li -0.576676 -0.400208 -0.00272929
Li 1.67335 0.964116 -0.535375
Li -1.17493 0.897097 2.14783
9
 Atoms. Timestep: 2000
Li -2.80296 0.522319 -0.112814
Li 0.688193 -4.36463 1.9806
Li -0.77601 2.40436 -0.0599303
Li 0.915344 -2.73479 -0.349494
Li 1.03457 -0.739901 -2.06397
Li -2.22642 -2.19432 0.853248
Li -0.423831 -0.235353 -0.202683
Li 2.00764 1.34044 -0.383094
Li -1.23917 1.05108 2.41992
9
 Atoms. Timestep: 2050
Li -2.87913 0.780935 -0.25113
Li 0.369451 -4.28386 2.00768
Li -0.530093 2.35614 -0.304262
Li 0.464092 -2.87569 -0.22766
Li 1.41085 -0.674949 -2.57976
Li -2.17943 -1.76293 0.35839
Li 0.0988106 -0.272836 0.463104
Li 2.11225 1.61892 -0.171563
Li -1.23458 1.06464 2.39345
9
 Atoms. Timestep: 2100
Li -2.81185 1.16938 -0.195971
Li -0.110728 -4.07624 2.22897
Li -0.382265 2.2914 -0.447473
Li 0.125792 -2.80745 -0.395947
Li 1.71915 -0.61224 -2.82637
Li -2.08274 -1.50053 -0.118408
Li 0.74268 -0.283983 0.886706
Li 2.27881 1.71028 -0.0452041
Li -1.29138 1.15975 2.12156
9
 Atoms. Timestep: 2150
Li -2.96609 1.56979 -0.180886
Li -0.670251 -3.56704 2.31033
Li -0.125498 2.12568 -0.495925
Li 0.29595 -2.77218 -0.514739
Li 1.90106 -0.560965 -2.80024
Li -2.11093 -1.02746 -0.468005
Li 1.02201 -0.50691 0.992561
Li 2.6239 1.76351 -0.0417486
Li -1.1662 1.24728 1.87316
9
 Atoms. Timestep: 2200
Li -3.16272 1.98721 -0.248548
Li -1.19497 -2.74354 2.14212
Li 0.184087 1.80957 -0.634382
Li 0.440881 -2.61885 -0.519499
Li 1.93281 -0.525802 -2.49578
Li -1.79311 -0.606422 -0.683329
Li 1.01798 -0.466517 0.855284
Li 2.83655 1.57622 -0.0690657
Li -0.822725 1.11752 1.77847
9
 Atoms. Timestep: 2250
Li -2.98477 2.17435 -0.178534
Li -1.55271 -1.59968 1.67688
Li 0.365324 1.6194 -1.03189
Li 0.391264 -2.58284 -0.65399
Li 1.74751 -0.475234 -1.83183
Li -1.24519 -0.305103 -0.638758
Li 1.18552 -0.409498 0.644818
Li 3.06109 1.2199 -0.167959
Li -0.919814 1.09545 1.77927
9
 Atoms. Timestep: 2300
Li -2.5354 2.09267 -0.0831836
Li -1.93488 -1.14755 1.69637
Li 0.699291 2.24143 -1.34626
Li 0.188389 -2.72818 -0.72361
Li 1.59204 -0.625915 -1.79568
Li -0.996337 -0.181404 -1.19239
Li 0.989238 -0.506165 1.23609
Li 3.40672 1.07612 -0.347752
Li -0.818478 1.59022 1.68519
9
 Atoms. Timestep: 2350
Li -2.32013 1.93034 -0.410066
Li -2.16798 -1.03203 1.80987
Li 0.908592 2.55361 -1.34472
Li -0.0312974 -2.71706 -0.53289
Li 1.69837 -0.696707 -1.85443
Li -0.915552 0.177031 -1.71214
Li 0.534643 -0.57139 1.45541
Li 3.39224 0.888817 -0.518323
Li -0.0696218 2.14772 1.85652
9
 Atoms. Timestep: 2400
Li -2.11991 1.93451 -0.330784
Li -2.38239 -0.848783 1.773
Li 0.948372 2.45902 -1.08858
Li -0.197963 -2.38855 -0.335387
Li 1.68054 -0.967372 -1.91011
Li -0.705129 0.123775 -2.10154
Li 0.253174 -0.428108 1.23252
Li 3.21976 0.899235 -0.521078
Li 0.638786 2.50275 1.76648
9
 Atoms. Timestep: 2450
Li -1.70321 1.78108 -0.0134804
Li -2.60818 -0.657778 1.59739
Li 0.630581 2.09527 -0.933737
Li -0.448261 -2.22408 -0.471511
Li 1.77393 -1.3659 -1.8816
Li -0.694524 0.0209992 -2.15491
Li 0.287024 0.374478 0.887489
Li 2.95069 0.91088 -0.350414
Li 1.30081 2.65586 1.67239
9
 Atoms. Timestep: 2500
Li -2.08267 1.76706 0.30385
Li -2.47546 -0.56199 1.29042
Li 0.591766 2.31894 -1.64055
Li -0.670306 -2.03217 -0.291463
Li 1.86343 -1.514 -1.72156
Li -0.842418 -0.0428405 -1.99035
Li 0.413333 0.0407059 0.743683
Li 2.69228 0.730862 -0.104583
Li 1.99111 2.86881 1.7689
9
 Atoms. Timestep: 2550
Li -2.29664 2.13811 0.23175
Li -2.32496 -0.883591 1.24323
Li 0.64027 2.5193 -2.05993
Li -0.773036 -2.71433 -0.117979
Li 1.60015 -1.38986 -1.40026
Li -0.982017 0.0820291 -1.73867
Li 0.174056 -0.0223339 0.831353
Li 2.80675 0.7636 -0.157599
Li 2.46942 2.75147 1.67099
9
 Atoms. Timestep: 2600
Li -2.25506 2.11919 0.115856
Li -2.34075 -1.01532 1.21744
Li 0.616538 2.44766 -2.11866
Li -0.542449 -3.30973 -0.166649
Li 1.06191 -1.26629 -1.10172
Li -1.21426 0.0859794 -1.3489
Li 0.22291 0.23119 0.932039
Li 2.76481 0.767772 -0.40149
Li 2.68699 2.56313 1.6461
9
 Atoms. Timestep: 2650
Li -2.09992 2.04245 0.246283
Li -2.08884 -1.08629 1.02792
Li 0.47974 2.07863 -1.78542
Li -0.317646 -3.6032 -0.0869646
Li 0.765927 -1.31295 -1.09174
Li -1.66605 -0.157315 -1.38343
Li 0.367591 0.731559 1.27262
Li 2.51552 0.763223 -0.750677
Li 2.60748 2.30207 1.70335
9
 Atoms. Timestep: 2700
Li -1.97132 1.93611 0.504584
Li -1.52688 -1.15832 1.04597
Li -0.189724 1.66653 -1.27983
Li -0.154114 -3.69832 0.120137
Li 0.547316 -1.18425 -1.05051
Li -1.97379 -0.416868 -1.75679
Li 0.219898 0.848191 1.07663
Li 2.5339 0.69217 -0.759419
Li 2.54934 2.0246 1.70898
9
 Atoms. Timestep: 2750
Li -2.72438 1.84713 0.835821
Li -1.29776 -1.48876 1.03209
Li -0.63203 1.40698 -1.45492
Li 0.0740041 -3.52435 0.33005
Li 0.400288 -1.06311 -1.05075
Li -2.33943 -0.685876 -1.92753
Li 0.658007 0.503454 1.17912
Li 2.57535 0.633223 -0.639625
Li 2.73627 1.92355 1.81103
9
 Atoms. Timestep: 2800
Li -3.26096 1.49935 1.05089
Li -1.69992 -1.48341 1.13844
Li -0.902878 1.35437 -1.37937
Li 0.620399 -3.49197 0.372065
Li 0.380135 -1.15326 -1.32135
Li -2.56092 -1.12289 -1.78615
Li 0.578645 0.180333 1.24409
Li 2.62525 0.594593 -0.707305
Li 3.07176 1.98879 2.02204
9
 Atoms. Timestep: 2850
Li -3.50701 0.941687 1.09714
Li -1.97584 -1.31732 1.05079
Li -1.13012 1.16744 -0.97374
Li 1.10719 -3.11768 0.391407
Li 0.277034 -1.23812 -1.43673
Li -2.47122 -1.49111 -1.41407
Li 0.401561 -0.119728 1.0079
Li 2.48873 0.560393 -0.644815
Li 3.08912 1.84703 2.0504
9
 Atoms. Timestep: 2900
Li -3.71991 0.624626 0.943045
Li -1.93376 -1.48666 1.47584
Li -1.45481 0.853236 -0.464058
Li 1.516 -2.51572 0.471421
Li 0.262835 -1.22489 -1.71805
Li -2.41679 -1.75231 -1.50275
Li 0.420646 -0.311563 1.05655
Li 2.32224 0.532383 -0.596674
Li 2.77676 1.51059 1.90093
9
 Atoms. Timestep: 2950
Li -4.165 0.467887 0.830796
Li -1.82429 -1.88512 1.7659
Li -1.57888 0.516089 -0.296239
Li 2.0784 -2.20946 0.357126
Li 0.373044 -1.07144 -1.89155
Li -2.3482 -1.8669 -1.37198
Li 0.240183 -0.13128 1.51319
Li 2.23765 0.412318 -0.850831
Li 2.35414 1.19293 1.86126
9
 Atoms. Timestep: 3000
Li -4.41653 0.204249 0.746936
Li -1.96053 -2.25979 1.74993
Li -1.58626 0.465962 -0.421038
Li 2.39687 -1.80439 0.218925
Li 0.171848 -1.13346 -1.93172
Li -2.22868 -2.11574 -1.06088
Li -0.00993717 -0.273843 1.78195
Li 2.29824 0.564018 -0.85802
Li 2.423 1.22523 1.933
9
 Atoms. Timestep: 3050
Li -4.23317 -0.110452 0.589353
Li -2.19614 -2.53707 1.78282
Li -1.57576 0.668053 -0.501414
Li 2.35865 -1.59765 0.303995
Li 0.147559 -1.1803 -1.79834
Li -2.19712 -2.47612 -0.872024
Li 0.0972035 -0.393588 1.7535
Li 2.23052 1.11567 -0.857536
Li 2.32247 1.11862 1.87447
9
 Atoms. Timestep: 3100
Li -3.63573 -0.496421 0.400781
Li -2.27635 -2.47842 2.0937
Li -1.41456 0.748401 -0.455415
Li 2.16219 -1.21765 0.337008
Li 0.312406 -1.10365 -1.43801
Li -2.11622 -2.51668 -0.973082
Li -0.194224 -0.660113 1.30993
Li 1.93678 1.3922 -0.873716
Li 2.19933 0.977935 1.85684
9
 Atoms. Timestep: 3150
Li -3.10782 -0.645001 0.413228
Li -2.38425 -2.42532 2.32823
Li -1.21563 1.29904 -0.757036
Li 2.56575 -1.14495 0.336902
Li 0.313489 -0.991633 -1.46844
Li -1.76992 -2.52612 -0.988916
Li -0.53047 -0.928543 1.06631
Li 1.43693 1.34553 -0.819953
Li 1.83554 0.999402 2.00064
9
 Atoms. Timestep: 3200
Li -2.92458 -0.138602 0.48131
Li -2.59492 -2.64533 2.68371
Li -1.35681 1.81743 -1.01268
Li 2.65877 -1.09293 0.285243
Li 0.52991 -0.943448 -1.94365
Li -1.3567 -2.87998 -0.988943
Li -0.196102 -0.811349 0.75498
Li 1.48656 1.28548 -0.502003
Li 1.20513 1.0006 2.08684
9
 Atoms. Timestep: 3250
Li -2.56601 0.327679 0.544974
Li -2.62095 -2.61602 2.76639
Li -1.41637 2.09885 -1.1146
Li 2.51993 -1.14551 0.252893
Li 0.796623 -0.916352 -2.36069
Li -0.984759 -2.97631 -0.827115
Li -0.10637 -0.739215 0.19219
Li 1.63587 1.35827 -0.425661
Li 0.616231 1.03834 2.45052
9
 Atoms. Timestep: 3300
Li -2.41195 0.747967 0.860471
Li -2.48034 -2.38968 2.64196
Li -1.0434 2.3071 -1.18167
Li 2.46073 -1.40417 0.184979
Li 1.12697 -0.863084 -2.55947
Li -0.691097 -3.11932 -0.793594
Li -0.166738 -0.358623 -0.191994
Li 1.56886 1.50615 -0.449093
Li 0.019283 1.01004 2.5277
9
 Atoms. Timestep: 3350
Li -2.62802 1.24013 1.10872
Li -2.16836 -1.95338 2.32698
Li -0.611201 2.36677 -1.10912
Li 2.05506 -1.5322 -0.0200672
Li 1.4774 -0.799614 -2.5077
Li -0.370149 -3.03276 -0.773764
Li -0.402976 -0.277856 -0.366666
Li 1.89654 1.67373 -0.448708
Li -0.308356 0.856291 2.34717
9
 Atoms. Timestep: 3400
Li -3.07953 1.62154 0.899278
Li -1.6657 -1.27478 1.78568
Li -0.418291 2.45772 -0.92065
Li 1.77346 -1.49466 0.209075
Li 1.61388 -0.575603 -2.50018
Li -0.279863 -2.88339 -0.835614
Li -0.708483 -0.14895 -0.346477
Li 2.33074 1.38017 -0.377117
Li -0.0579848 0.584936 2.15118
9
 Atoms. Timestep: 3450
Li -3.08903 1.76182 0.612847
Li -1.739 -1.33613 1.49117
Li -0.115681 2.67115 -0.586829
Li 1.64246 -1.22701 0.780519
Li 1.49138 -0.340855 -2.33806
Li -0.643379 -2.76061 -1.00422
Li -0.668633 0.0482827 -0.899701
Li 2.45633 0.992738 -0.306645
Li 0.713466 0.926748 1.84919
9
 Atoms. Timestep: 3500
Li -2.71165 1.6918 0.266397
Li -1.69021 -1.38289 1.19493
Li 0.260957 2.90059 -0.204492
Li 1.09856 -1.63641 1.09024
Li 1.57469 -0.496115 -2.48019
Li -0.93224 -2.40775 -1.04061
Li -0.860381 0.299202 -0.989393
Li 2.72453 1.16536 -0.421144
Li 1.05772 1.54149 1.77241
9
 Atoms. Timestep: 3550
Li -2.63344 1.9042 0.349606
Li -1.91559 -0.957399 1.21822
Li 0.374101 3.13867 -0.349075
Li 0.663827 -1.90531 1.05065
Li 1.6582 -0.745044 -2.49646
Li -0.95712 -2.26307 -1.39954
Li -0.36181 0.360855 -1.03832
Li 2.8566 1.23667 -0.748243
Li 1.21352 1.65126 2.27572
9
 Atoms. Timestep: 3600
Li -2.52735 2.15569 0.59753
Li -2.25656 -0.346394 1.15052
Li 0.44852 3.03488 -0.436731
Li 0.46405 -2.00433 0.705809
Li 1.78397 -1.16529 -2.47008
Li -0.870431 -2.08935 -1.6622
Li 0.245343 0.46165 -0.713994
Li 2.62266 1.25125 -0.969149
Li 1.24164 1.62505 2.44148
9
 Atoms. Timestep: 3650
Li -2.17966 2.70299 0.683015
Li -2.17618 -0.29134 1.04658
Li 0.485155 3.04753 -0.340731
Li 0.371573 -2.20597 0.56134
Li 1.88268 -1.6014 -2.32912
Li -0.862128 -1.73865 -1.97476
Li -0.0481905 0.39653 -0.155178
Li 2.69895 1.32204 -1.15286
Li 1.09411 1.51821 2.20586
9
 Atoms. Timestep: 3700
Li -1.74261 2.9548 0.779736
Li -2.30095 -0.528789 1.18362
Li 0.700099 3.22055 -0.2353
Li 0.38999 -2.63152 0.553902
Li 1.84794 -1.80876 -1.92874
Li -0.967518 -1.29333 -2.13742
Li -0.0889287 0.464913 -0.403904
Li 2.4963 1.22731 -1.18275
Li 0.900777 1.48293 1.942
9
 Atoms. Timestep: 3750
Li -1.45221 2.74734 0.978627
Li -2.1834 -0.774977 1.26991
Li 1.18114 3.44719 -0.289808
Li 0.275855 -2.70538 0.412708
Li 1.65517 -1.68364 -1.4761
Li -1.25141 -1.37978 -2.44487
Li -0.198841 0.545942 -0.468369
Li 2.31261 0.996345 -1.10493
Li 0.722787 1.55155 1.844
9
 Atoms. Timestep: 3800
Li -1.54267 2.58394 0.958283
Li -1.82834 -0.978431 1.32286
Li 1.3802 3.37062 -0.252816
Li -0.190137 -2.69595 0.586767
Li 1.3945 -1.35644 -1.52026
Li -1.45474 -1.68464 -2.57361
Li -0.57403 0.459882 -0.477528
Li 2.5472 1.04842 -0.919754
Li 1.02743 1.39827 1.85877
9
 Atoms. Timestep: 3850
Li -1.70699 2.40976 0.894308
Li -1.97763 -0.752606 1.77567
Li 1.11282 3.28406 -0.0557367
Li -0.0970675 -2.90434 0.35029
Li 1.01438 -1.41709 -1.68017
Li -1.49512 -1.91002 -2.29466
Li -0.636065 0.457705 -0.759824
Li 2.76354 1.05123 -0.574731
Li 1.3723 1.11626 1.68161
9
 Atoms. Timestep: 3900
Li -1.79898 2.17014 1.022
Li -1.89292 -0.382911 1.99639
Li 0.527601 3.09476 0.142971
Li -0.0205974 -2.88644 0.0804245
Li 1.29381 -1.53864 -1.94677
Li -1.69804 -2.09098 -1.7689
Li -0.667652 0.46483 -0.808645
Li 2.96432 0.764224 -0.580246
Li 1.15566 0.775207 1.62085
9
 Atoms. Timestep: 3950
Li -2.21816 2.20104 1.34117
Li -1.6065 -0.428601 2.07739
Li 0.199367 2.73714 0.10708
Li 0.313216 -2.71165 0.172941
Li 1.49368 -1.39394 -2.12403
Li -2.03428 -2.02515 -1.37191
Li -0.329885 0.07763 -0.81335
Li 2.87971 0.422282 -0.694845
Li 0.635606 0.44057 1.52256
9
 Atoms. Timestep: 4000
Li -2.631 2.23164 1.51164
Li -1.87854 -1.12025 2.12376
Li 0.00296417 2.35544 -0.121915
Li 0.735795 -2.18885 0.33329
Li 1.58231 -1.56271 -2.46805
Li -2.31437 -1.93403 -0.938694
Li -0.27381 -0.148548 -0.896749
Li 2.52278 0.274407 -0.50491
Li 1.04965 0.34841 1.64321
9
 Atoms. Timestep: 4050
Li -2.79438 2.01061 1.53246
Li -1.8774 -1.676 1.93451
Li -0.153321 2.29427 -0.131739
Li 1.2166 -1.89311 0.576966
Li 1.57038 -1.82878 -2.73381
Li -2.5069 -1.9331 -0.451531
Li -0.428218 -0.294639 -1.16701
Li 2.22615 0.239099 -0.593562
Li 1.03645 0.333897 2.15342
9
 Atoms. Timestep: 4100
Li -2.71449 1.61069 1.39176
Li -1.40421 -1.94557 2.32168
Li -0.238773 2.19155 0.0652285
Li 1.39599 -1.9293 0.746187
Li 1.45097 -1.87828 -2.63996
Li -2.80388 -2.04788 -0.680423
Li -0.519247 -0.582818 -1.36321
Li 1.97011 0.450551 -0.883088
Li 0.711622 0.509103 2.5433
9
 Atoms. Timestep: 4150
Li -2.50236 1.02063 1.19363
Li -0.748279 -1.9691 2.47211
Li -0.203461 1.81423 0.234518
Li 1.27032 -1.69395 0.746186
Li 1.46908 -1.86674 -2.39223
Li -2.96619 -2.13715 -0.829157
Li -0.738843 -0.655271 -1.11875
Li 1.7086 0.602862 -1.02656
Li 0.212816 0.576259 2.52143
9
 Atoms. Timestep: 4200
Li -2.47072 0.126303 1.10311
Li -0.437244 -2.11874 2.60171
Li -0.194736 1.93687 0.0980742
Li 1.25948 -1.24166 0.503449
Li 1.45414 -1.8875 -2.05274
Li -3.10387 -2.24069 -0.866237
Li -0.923445 -0.550719 -0.687577
Li 1.89403 0.601195 -1.25191
Li -0.204601 0.613721 2.55112
9
 Atoms. Timestep: 4250
Li -2.85163 -0.64333 1.47904
Li -0.39772 -2.30587 2.57448
Li -0.218671 2.20086 -0.0991276
Li 1.48635 -0.953112 0.896773
Li 1.2631 -2.09275 -1.92735
Li -3.11151 -2.25252 -0.792603
Li -0.734905 -0.56773 -1.04519
Li 2.14389 0.968917 -1.48972
Li -0.402187 0.693486 2.48602
9
 Atoms. Timestep: 4300
Li -2.91719 -1.24344 1.85657
Li -0.494907 -2.15855 2.3079
Li -0.142736 2.15241 -0.258264
Li 1.48512 -0.611832 1.05001
Li 1.28516 -2.22063 -1.76879
Li -2.87002 -2.18098 -0.743098
Li -0.615688 -0.291493 -1.02571
Li 2.0825 1.07924 -1.45278
Li -0.594224 0.605033 2.08078
9
 Atoms. Timestep: 4350
Li -3.11541 -1.40733 2.11028
Li -0.301003 -2.05694 1.89903
Li -0.0378124 2.47448 -0.17966
Li 1.55994 -0.472137 0.762137
Li 1.37456 -2.12745 -1.49574
Li -2.40054 -2.07178 -0.712515
Li -0.555504 -0.336928 -0.771275
Li 1.94804 0.859564 -1.31996
Li -1.07956 0.614398 1.60316
9
 Atoms. Timestep: 4400
Li -3.19227 -1.32249 2.07065
Li -0.425457 -2.08186 1.35501
Li 0.0630275 2.76967 -0.059171
Li 1.9091 -0.491932 1.08878
Li 1.51269 -1.97524 -1.2523
Li -2.2049 -2.31137 -0.437386
Li -0.38242 -0.051126 -0.893631
Li 1.9714 0.824852 -1.70404
Li -1.56374 0.699222 1.47257
9
 Atoms. Timestep: 4450
Li -3.17963 -1.32317 1.85533
Li -0.23479 -1.77744 1.29352
Li 0.184074 2.67331 0.00950438
Li 2.16412 -0.364996 1.24574
Li 1.62179 -1.84598 -1.04695
Li -2.53562 -2.52281 -0.682893
Li -0.471827 0.19032 -0.870966
Li 2.15494 0.850208 -1.90297
Li -1.62237 0.959356 1.39994
9
 Atoms. Timestep: 4500
Li -2.96821 -1.24667 1.46401
Li -0.227316 -1.2668 1.28959
Li 0.435246 2.4904 0.0334277
Li 2.2625 -0.106545 1.18929
Li 1.53542 -1.65374 -0.918364
Li -2.78714 -2.52351 -0.986585
Li -0.430556 0.0493914 -0.959777
Li 2.18647 0.829415 -1.71948
Li -1.46197 1.18564 1.5069
9
 Atoms. Timestep: 4550
Li -2.86246 -0.887583 1.00724
Li -0.0926095 -1.12723 1.46018
Li 0.763076 2.32985 0.0806794
Li 2.24268 0.309286 1.06413
Li 1.50738 -1.85618 -0.903738
Li -2.77358 -2.37833 -1.27567
Li -0.695557 0.15272 -1.16411
Li 2.21648 0.843112 -1.44033
Li -1.25927 1.36585 1.63659
9
 Atoms. Timestep: 4600
Li -2.79509 -0.271961 0.565748
Li 0.0484647 -1.18219 1.45091
Li 0.773594 2.57191 0.172321
Li 2.2106 0.391256 1.23378
Li 1.31656 -1.79007 -0.834085
Li -2.50901 -2.13067 -1.59521
Li -0.796011 0.159798 -0.946875
Li 2.39813 0.565354 -1.79332
Li -1.09636 1.43804 1.77501
9
 Atoms. Timestep: 4650
Li -3.03567 0.194751 0.386706
Li -0.426906 -1.25969 1.49312
Li 0.87129 2.67009 -0.078528
Li 2.14645 0.372031 1.07969
Li 1.17621 -1.7757 -0.870342
Li -2.01769 -1.70889 -1.73762
Li -0.276424 0.422348 -0.77307
Li 2.37718 0.448751 -1.83638
Li -0.79048 1.32498 1.95542
9
 Atoms. Timestep: 4700
Li -2.93969 0.575101 0.242719
Li -0.913392 -1.41427 1.28812
Li 1.19559 3.0061 -0.179879
Li 1.70787 0.080888 0.815481
Li 1.0976 -2.05619 -0.837614
Li -1.42472 -1.28517 -1.63461
Li -0.283727 0.611781 -0.636292
Li 2.29265 0.592128 -1.70772
Li -0.299082 1.38886 1.91481
9
 Atoms. Timestep: 4750
Li -2.67155 0.842577 0.215625
Li -1.21686 -1.2994 0.821037
Li 1.54219 3.20642 -0.174771
Li 1.73289 -0.555801 1.13278
Li 0.974632 -2.09462 -0.875135
Li -1.52034 -1.66413 -1.79012
Li -0.239338 1.31591 -0.771591
Li 2.15222 0.764068 -1.62844
Li -0.00306633 1.61358 2.06077
9
 Atoms. Timestep: 4800
Li -2.73357 1.19288 0.331463
Li -1.03223 -1.07432 0.623252
Li 1.85241 3.25674 -0.0696334
Li 1.60624 -0.918907 1.44827
Li 0.916255 -2.03118 -1.15875
Li -1.8351 -1.87213 -2.07475
Li -0.389607 1.5943 -0.92039
Li 2.31258 0.68775 -1.36059
Li 0.259086 1.70017 1.99368
9
 Atoms. Timestep: 4850
Li -2.80926 1.4846 0.582722
Li -0.922525 -0.635535 0.386882
Li 1.93078 3.06387 0.0263651
Li 1.51056 -1.12608 1.52972
Li 0.84408 -1.67442 -1.47706
Li -2.00743 -1.95542 -2.14681
Li -0.36685 1.55847 -0.902972
Li 2.35939 0.470407 -0.809065
Li 0.497261 1.50781 1.55361
9
 Atoms. Timestep: 4900
Li -2.66475 1.69306 0.841664
Li -1.19272 -0.596626 0.271353
Li 1.94106 3.05256 -0.1277
Li 1.51298 -1.49288 1.47813
Li 0.634921 -1.24964 -1.77808
Li -1.97623 -1.90428 -1.9486
Li -0.131249 1.63058 -1.35075
Li 2.30647 0.371465 -0.193106
Li 0.555945 1.0912 1.59339
9
 Atoms. Timestep: 4950
Li -2.25969 1.84155 1.0217
Li -1.21048 -0.677015 0.455566
Li 1.76544 3.15186 -0.261953
Li 1.21585 -2.18339 1.44175
Li 0.585127 -0.858796 -1.94515
Li -2.09205 -1.95549 -1.86732
Li 0.0664218 1.57667 -1.56454
Li 2.45267 0.367817 -0.164563
Li 0.288774 0.986796 1.82165
9
 Atoms. Timestep: 5000
Li -1.8532 1.95583 1.0136
Li -1.10693 -0.887291 0.497323
Li 1.65291 3.27709 -0.110676
Li 0.809538 -2.52306 1.13547
Li 0.675701 -1.19125 -1.96085
Li -2.14259 -2.0136 -1.82214
Li -0.220985 1.67516 -1.41013
Li 2.19566 0.359966 -0.119576
Li 0.516114 1.03087 1.96143
9
 Atoms. Timestep: 5050
Li -1.65666 2.0231 0.985277
Li -1.0987 -0.616804 0.413062
Li 1.44748 3.18246 0.208001
Li 0.734632 -2.82516 0.699148
Li 0.584059 -1.46067 -1.71011
Li -2.03722 -2.02591 -1.74474
Li -0.465127 1.20387 -1.21204
Li 1.77645 0.354379 -0.285805
Li 0.86477 1.10247 2.15743
9
 Atoms. Timestep: 5100
Li -1.53246 2.13451 1.34667
Li -0.929364 -0.619517 0.860602
Li 0.914492 2.82167 0.397447
Li 0.72379 -3.05671 0.448017
Li 0.543487 -1.61434 -1.86203
Li -2.1561 -2.05939 -1.63044
Li -0.584092 0.976689 -1.81713
Li 1.90103 0.338702 -0.247422
Li 0.828519 1.14368 2.39551
9
 Atoms. Timestep: 5150
Li -1.68978 1.98837 1.67196
Li -0.544278 -0.727543 1.06291
Li 0.498192 2.6616 0.0154926
Li 0.657102 -3.13538 0.447097
Li 0.690915 -1.49708 -2.2016
Li -2.25131 -1.95363 -1.30938
Li -0.695722 0.744387 -2.02439
Li 1.80802 0.189631 -0.0603847
Li 0.762892 0.85734 2.69898
9
 Atoms. Timestep: 5200
Li -1.91373 1.53619 1.9209
Li -0.701953 -0.785483 0.999006
Li 0.183032 2.39746 -0.406028
Li 0.649744 -3.03996 0.205863
Li 0.8904 -1.60984 -2.19211
Li -1.9485 -1.69398 -0.91775
Li -0.876963 0.543627 -1.7463
Li 1.67197 0.0398055 -0.00754887
Li 0.808767 0.802289 2.8541
9
 Atoms. Timestep: 5250
Li -2.16505 1.45374 2.09845