9
 Atoms. Timestep: 100
Li -1.22026 -2.15297 2.14793
Li -1.8067 -0.605696 -0.0367275
Li 0.718351 -0.37847 1.27216
Li 0.0850335 -2.61646 -0.295214
Li 0.514094 -0.125418 -1.48385
Li 2.17864 1.54299 -0.02616
Li -0.564998 1.84904 0.20114
Li 0.723049 2.55691 -2.15979
Li -1.56343 0.590635 2.48184
9
 Atoms. Timestep: 150
Li -1.26572 -2.05211 2.15351
Li -1.82348 -0.612535 -0.0323218
Li 0.680881 -0.344194 1.25334
Li 0.160805 -2.59751 -0.246228
Li 0.492223 -0.228086 -1.5748
Li 2.14174 1.40029 -0.0772579
Li -0.617019 1.81041 0.141021
Li 0.802212 2.49187 -2.12398
Li -1.50136 0.683651 2.49519
9
 Atoms. Timestep: 200
Li -1.37235 -1.98415 2.25108
Li -1.86127 -0.633114 -0.0784108
Li 0.61116 -0.351178 1.23988
Li 0.234405 -2.64596 -0.105115
Li 0.431277 -0.322245 -1.69008
Li 2.22895 1.21038 -0.158389
Li -0.613473 1.79345 -0.00401267
Li 0.88258 2.4117 -2.20895
Li -1.45801 0.855827 2.51727
9
 Atoms. Timestep: 250
Li -1.50907 -1.80247 2.33164
Li -1.83762 -0.713545 -0.0580427
Li 0.555089 -0.308027 1.24871
Li 0.202173 -2.70766 0.0432298
Li 0.361803 -0.416516 -1.66469
Li 2.27586 0.961349 -0.363785
Li -0.518362 1.72915 -0.152278
Li 1.02295 2.26501 -2.37072
Li -1.45099 1.01709 2.42726
9
 Atoms. Timestep: 300
Li -1.59547 -1.57998 2.50035
Li -1.88981 -0.6879 -0.0581989
Li 0.630988 -0.288047 1.29815
Li 0.0811156 -2.71254 0.195766
Li 0.308239 -0.667912 -1.70802
Li 2.36095 0.669929 -0.532295
Li -0.437114 1.68144 -0.302982
Li 1.17091 2.03591 -2.57178
Li -1.50512 1.19138 2.22391
9
 Atoms. Timestep: 350
Li -1.59336 -1.30992 2.6042
Li -1.89296 -0.590625 0.0435196
Li 0.594249 -0.186164 1.32424
Li -0.0980728 -2.66696 0.392411
Li 0.264575 -0.901934 -1.79462
Li 2.38327 0.297733 -0.642701
Li -0.261979 1.5413 -0.54458
Li 1.28593 1.65937 -2.71568
Li -1.5314 1.37207 1.9347
9
 Atoms. Timestep: 400
Li -1.57469 -1.05217 2.7146
Li -1.89582 -0.522768 -0.0116691
Li 0.597098 -0.0776399 1.36806
Li -0.222548 -2.58377 0.618192
Li 0.102736 -1.1435 -1.83806
Li 2.35817 -0.160241 -0.685943
Li -0.150404 1.44711 -0.754229
Li 1.50063 1.18128 -2.97239
Li -1.53841 1.68346 1.7032
9
 Atoms. Timestep: 450
Li -1.64804 -0.672448 2.67396
Li -1.93382 -0.451719 0.0298826
Li 0.609596 0.170437 1.37447
Li -0.196929 -2.46608 0.813377
Li -0.104663 -1.35562 -1.87421
Li 2.18203 -0.67656 -0.710511
Li -0.000894536 1.32749 -0.991108
Li 1.72899 0.58229 -3.0928
Li -1.43391 1.88589 1.47459
9
 Atoms. Timestep: 500
Li -1.74391 -0.251755 2.69248
Li -1.8764 -0.34037 -0.03242
Li 0.730598 0.372463 1.33339
Li -0.0300599 -2.15675 0.909368
Li -0.412334 -1.55109 -1.97975
Li 1.89901 -1.2569 -0.543831
Li 0.127537 1.07809 -1.2476
Li 1.87642 -0.0503619 -3.03261
Li -1.34557 2.11699 1.20091
9
 Atoms. Timestep: 550
Li -1.70007 0.205101 2.61873
Li -1.842 -0.240551 -0.0257238
Li 0.833699 0.660999 1.2847
Li -0.33394 -2.06344 1.25931
Li -0.559481 -1.75069 -2.12101
Li 1.83145 -1.65983 -0.57504
Li 0.247421 0.814146 -1.36292
Li 2.00061 -0.655105 -2.94887
Li -1.23373 2.33758 0.846956
9
 Atoms. Timestep: 600
Li -1.53285 0.682334 2.50237
Li -1.86004 -0.222139 -0.111864
Li 0.873893 0.661431 1.18126
Li -0.568774 -1.90477 1.64724
Li -0.501129 -1.86259 -2.1103
Li 1.41717 -1.95381 -0.245738
Li 0.437391 0.573214 -1.4616
Li 2.07836 -1.03414 -3.07426
Li -1.08695 2.48941 0.421533
9
 Atoms. Timestep: 650
Li -1.47558 1.10768 2.3382
Li -1.65932 -0.249349 -0.179651
Li 0.864532 0.484411 1.08815
Li -0.72568 -1.57451 2.06271
Li -0.577745 -1.996 -2.21572
Li 0.981212 -1.96955 0.0114654
Li 0.585188 0.473233 -1.56292
Li 2.07257 -1.3564 -2.8688
Li -0.801442 2.39799 -0.0403991
9
 Atoms. Timestep: 700
Li -1.60436 1.48718 2.05353
Li -1.36317 -0.426135 -0.0611964
Li 0.919392 0.529388 1.14573
Li -0.894391 -1.23795 2.53813
Li -0.724839 -2.01259 -2.4162
Li 0.634968 -1.99617 -0.0744734
Li 0.670312 0.397883 -1.77656
Li 2.12659 -1.72585 -2.41014
Li -0.501004 2.30571 -0.361694
9
 Atoms. Timestep: 750
Li -1.76198 1.72015 1.72012
Li -1.54502 -0.310337 0.0434659
Li 0.926463 0.616911 1.13466
Li -0.800681 -0.895292 2.70798
Li -0.756096 -1.86145 -2.59481
Li 0.508696 -2.2633 0.0107829
Li 0.691503 0.198213 -1.84271
Li 2.34739 -2.16338 -1.94579
Li -0.353872 2.39868 -0.473394
9
 Atoms. Timestep: 800
Li -1.90411 1.8908 1.65022
Li -1.56522 -0.303612 -0.108986
Li 0.879129 0.640974 0.930651
Li -0.643186 -0.632604 2.58504
Li -0.727683 -1.88562 -2.60931
Li 0.118699 -2.25477 0.233901
Li 0.800429 0.0602104 -1.48815
Li 2.53485 -2.32548 -1.56242
Li -0.249968 2.47531 -0.637172
9
 Atoms. Timestep: 850
Li -1.83934 1.86354 1.51305
Li -1.64098 -0.0203747 -0.301788
Li 1.07417 0.969209 1.10773
Li -0.776241 -0.699462 2.43809
Li -0.670248 -2.05659 -2.42416
Li -0.017007 -2.21161 0.280942
Li 0.989219 -0.133522 -1.58168
Li 2.44446 -2.21349 -1.01074
Li -0.339954 2.48292 -0.700475
9
 Atoms. Timestep: 900
Li -1.68899 1.84924 1.62476
Li -1.52871 -0.0613244 -0.561373
Li 1.03233 1.19692 1.14888
Li -0.933906 -0.659713 2.1502
Li -0.643772 -2.25772 -2.29517
Li -0.0891431 -2.14829 0.226892
Li 0.927708 0.194267 -1.40531
Li 2.49669 -2.14424 -0.379617
Li -0.371083 2.39516 -0.790217
9
 Atoms. Timestep: 950
Li -1.67678 2.0583 1.60534
Li -1.7187 -0.21052 -0.550376
Li 0.879344 1.20767 1.21558
Li -0.99242 -0.593776 2.128
Li -0.512913 -2.16069 -2.52835
Li -0.0658704 -2.39598 0.256615
Li 1.08742 0.0262092 -1.25184
Li 2.68547 -1.73759 0.125267
Li -0.509847 2.59586 -0.840071
9
 Atoms. Timestep: 1000
Li -1.91886 2.23368 1.49884
Li -1.64126 -0.227651 -0.361242
Li 0.771364 1.19737 1.14118
Li -0.893969 -0.734374 2.1158
Li -0.279038 -1.83638 -2.63488
Li -0.0345783 -2.49617 0.086136
Li 0.891612 -0.212824 -1.1004
Li 2.78944 -1.13863 0.670135
Li -0.535169 2.44159 -0.801907
9
 Atoms. Timestep: 1050
Li -2.1457 1.99702 1.44139
Li -1.7042 -0.120196 -0.205206
Li 0.688963 1.31027 1.41735
Li -0.5883 -0.989533 2.20931
Li -0.300105 -1.77559 -2.91807
Li -0.0365847 -2.4418 -0.122989
Li 1.06183 -0.0324239 -1.02163
Li 2.66052 -0.445398 1.2356
Li -0.511915 2.14301 -0.987657
9
 Atoms. Timestep: 1100
Li -2.28955 1.76959 1.41087
Li -1.67195 -0.405566 -0.0811182
Li 0.275757 1.72096 1.65338
Li -0.0881787 -1.22672 2.14343
Li -0.254139 -1.58419 -2.96629
Li -0.0783304 -2.33728 -0.394415
Li 1.24759 -0.04051 -0.992018
Li 2.50114 0.0611609 1.64703
Li -0.540046 2.05934 -0.987433
9
 Atoms. Timestep: 1150
Li -2.80978 1.70654 1.36389
Li -1.61249 -0.479842 0.0517363
Li 0.130515 1.99011 1.71146
Li 0.446278 -1.28553 1.77915
Li -0.119229 -1.15696 -2.92709
Li 0.171202 -2.79865 -0.58509
Li 1.19592 -0.0823821 -0.670522
Li 2.36081 0.506679 1.78808
Li -0.678793 1.91543 -0.768376
9
 Atoms. Timestep: 1200
Li -3.08284 1.5814 1.16491
Li -1.47193 -0.709479 0.254317
Li -0.116667 2.0927 1.87536
Li 0.711698 -1.67065 1.67628
Li 0.0223332 -0.671553 -2.69568
Li 0.289551 -3.02825 -0.782783
Li 1.09159 0.034868 -0.493495
Li 2.58794 1.06089 1.72121
Li -0.959526 1.83089 -0.76378
9
 Atoms. Timestep: 1250
Li -3.07307 1.33327 0.937496
Li -1.32884 -0.945458 0.466385
Li -0.387809 1.94679 1.77799
Li 1.01676 -2.15117 1.85122
Li -0.0881819 -0.394155 -2.59556
Li 0.208937 -2.77855 -0.989114
Li 1.17628 0.376943 -0.173337
Li 2.68759 1.54482 1.5692
Li -1.14542 1.68681 -0.785756
9
 Atoms. Timestep: 1300
Li -3.12319 0.941356 0.948156
Li -1.14117 -0.90295 0.832901
Li -0.506369 1.64862 1.59986
Li 1.19497 -2.37906 1.60672
Li -0.16199 -0.2632 -2.47832
Li 0.126767 -2.38536 -1.07749
Li 1.08022 0.215409 0.0199723
Li 2.81342 2.12586 1.61322
Li -1.21554 1.60392 -1.02175
9
 Atoms. Timestep: 1350
Li -3.27321 0.701289 0.937743
Li -1.14557 -1.12145 1.34572
Li -0.476913 1.62759 1.61634
Li 1.33256 -2.39704 1.27128
Li -0.00846115 -0.15413 -2.83189
Li 0.0563059 -2.38673 -1.00495
Li 1.40743 -0.0491454 0.0207598
Li 2.66158 2.4691 1.44843
Li -1.47904 1.78888 -0.891115
9
 Atoms. Timestep: 1400
Li -3.31301 0.568207 0.951493
Li -0.930239 -1.36839 1.63407
Li -0.220573 1.5941 1.59759
Li 1.63783 -2.50886 1.36658
Li 0.215272 -0.0338752 -2.85074
Li -0.354379 -2.17562 -1.19388
Li 1.27729 -0.0222849 -0.121443
Li 2.25312 2.4916 1.08204
Li -1.47697 1.70515 -0.79028
9
 Atoms. Timestep: 1450
Li -3.02093 0.382178 1.02713
Li -0.684917 -1.29582 1.63736
Li -0.327482 1.33635 1.7722
Li 1.78766 -2.47344 1.25597
Li 0.435699 0.133535 -2.74025
Li -0.825957 -1.84172 -1.06912
Li 0.88175 -0.0448458 -0.188395
Li 2.05496 2.37058 0.457844
Li -1.19367 1.36917 -0.803128
9
 Atoms. Timestep: 1500
Li -2.62884 0.144864 1.07045
Li -0.698818 -1.47725 1.77348
Li -0.531131 1.46033 2.09756
Li 1.87138 -2.4329 1.02414
Li 0.585615 0.22613 -2.90277
Li -1.48283 -1.50331 -0.958274
Li 1.14704 -0.223504 0.019063
Li 1.92122 2.22634 -0.280399
Li -1.05394 1.1378 -0.885258
9
 Atoms. Timestep: 1550
Li -2.73003 0.10583 1.13537
Li -0.552148 -1.84661 1.97756
Li -0.385012 1.68105 1.98585
Li 2.02123 -2.93091 1.01975
Li 0.785615 0.158058 -2.78812
Li -1.91041 -1.37221 -0.96048
Li 1.04726 -0.370649 -0.0270508
Li 1.71798 2.33092 -1.08976
Li -0.840006 1.38867 -0.725014
9
 Atoms. Timestep: 1600
Li -2.63182 0.329394 1.38757
Li -0.447988 -1.95771 1.91262
Li -0.119606 1.69852 1.81683
Li 1.94215 -3.2204 0.969579
Li 0.867759 -0.0827574 -2.5055
Li -1.88876 -1.35584 -1.04393
Li 0.79988 -0.699188 0.0838653
Li 1.58994 2.38422 -1.77263
Li -0.931813 1.62562 -0.758402
9
 Atoms. Timestep: 1650
Li -2.16048 0.487207 1.38094
Li -0.781524 -2.11746 2.07781
Li 0.252273 1.55216 1.74563
Li 1.65658 -3.24762 0.856142
Li 0.694825 -0.535927 -2.56436
Li -1.62051 -1.1405 -0.904477
Li 0.621084 -0.549844 0.206746
Li 1.55547 2.46522 -2.14192
Li -1.01399 1.4076 -0.982558
9
 Atoms. Timestep: 1700
Li -1.74045 0.394534 1.26841
Li -1.16909 -2.08114 2.05122
Li 0.686616 1.96182 1.66656
Li 1.16742 -3.06228 0.713827
Li 0.422107 -0.794575 -2.61567
Li -1.69574 -1.39684 -0.826097
Li 0.788402 -0.609995 0.344504
Li 1.41223 2.17712 -2.28144
Li -0.646695 1.37998 -1.01277
9
 Atoms. Timestep: 1750
Li -1.54359 0.53542 1.3969
Li -1.3785 -2.17201 1.88882
Li 0.94901 2.48386 1.34725
Li 0.643474 -3.32452 0.595237
Li 0.214735 -0.855939 -2.38183
Li -1.63762 -1.75971 -0.673011
Li 0.877284 -0.432592 0.295593
Li 1.73654 1.74785 -2.50686
Li -0.619816 1.46682 -0.943495
9
 Atoms. Timestep: 1800
Li -1.45405 0.714577 1.66017
Li -1.58125 -2.22812 2.2048
Li 0.963787 2.69866 0.704062
Li 0.283485 -3.45332 0.274275
Li 0.279211 -0.713657 -2.21328
Li -1.59115 -1.91163 -0.632977
Li 0.925778 -0.513002 0.429245
Li 2.07587 1.13271 -2.49608
Li -0.648933 1.77497 -1.10661
9
 Atoms. Timestep: 1850
Li -1.26104 0.810262 1.5858
Li -1.63135 -2.04313 2.40975
Li 1.16476 2.81088 0.292787
Li 0.293097 -3.47596 0.101502
Li 0.168443 -0.838723 -2.16601
Li -1.85899 -1.65129 -0.55748
Li 0.616414 -0.506566 0.502848
Li 2.55871 0.8106 -2.14752
Li -0.792245 1.50083 -1.28553
9
 Atoms. Timestep: 1900
Li -1.51186 1.07951 1.46985
Li -1.45318 -1.64856 2.23819
Li 1.31309 2.66197 -0.103686
Li 0.268154 -3.14605 -0.0130677
Li 0.225798 -1.25107 -2.32801
Li -2.04443 -1.22482 -0.253707
Li 0.566102 -0.644629 0.31956
Li 2.81642 0.560807 -1.4774
Li -0.923755 1.05408 -1.09033
9
 Atoms. Timestep: 1950
Li -1.81923 1.24743 1.48084
Li -0.970706 -1.29155 2.2467
Li 1.21403 2.32754 -0.508832
Li 0.030371 -3.01784 -0.150076
Li 0.349727 -1.61463 -2.35832
Li -2.28225 -1.11009 -0.313758
Li 0.723271 -0.27967 0.544248
Li 2.85599 0.190829 -0.71979
Li -0.852657 1.11956 -1.32439
9
 Atoms. Timestep: 2000
Li -1.97599 1.23707 1.24886
Li -0.892759 -1.33952 2.59967
Li 1.33215 2.35867 -0.629618
Li -0.28251 -2.75927 0.139923
Li 0.496212 -1.48055 -2.30778
Li -2.22999 -1.13452 -0.380927
Li 0.542997 0.179225 0.519065
Li 3.35309 -0.230963 -0.366277
Li -1.1082 0.967844 -1.6914
9
 Atoms. Timestep: 2050
Li -2.07873 1.15091 0.915235
Li -1.0814 -1.3638 2.77839
Li 1.46182 2.56451 -0.911271
Li -0.0820873 -2.5335 0.615056
Li 0.603457 -1.09216 -1.98282
Li -2.30592 -1.12916 -0.397169
Li 0.308956 0.0711674 0.284046
Li 3.49447 -0.510118 -0.0567815
Li -1.10386 0.946147 -1.79571
9
 Atoms. Timestep: 2100
Li -2.26541 1.30399 0.772875
Li -1.36956 -1.0806 2.72495
Li 1.33384 2.52227 -1.17228
Li 0.380559 -2.61716 0.801136
Li 0.858317 -1.08672 -1.93882
Li -2.22518 -1.48592 -0.469358
Li 0.319977 0.247666 0.676891
Li 3.20218 -0.653415 0.180983
Li -1.03979 1.31766 -1.74998
9
 Atoms. Timestep: 2150
Li -2.45411 1.2058 0.738352
Li -1.59569 -0.739249 2.24597
Li 1.39211 2.37827 -1.21167
Li 0.766278 -2.46434 0.803781
Li 0.995408 -1.00924 -1.69394
Li -1.64818 -1.56892 -0.391181
Li 0.278197 0.522062 0.866814
Li 2.51304 -0.686011 0.325337
Li -1.07579 1.22538 -1.44625
9
 Atoms. Timestep: 2200
Li -2.98337 1.32694 0.791859
Li -1.68643 -0.975082 2.19765
Li 1.62439 2.10317 -1.02948
Li 0.780518 -2.50761 0.967636
Li 0.929423 -0.762418 -1.73071
Li -1.29991 -1.43807 -0.407892
Li 0.112806 0.824421 0.812749
Li 2.8113 -0.205 0.582866
Li -1.14145 0.898032 -1.53183
9
 Atoms. Timestep: 2250
Li -3.21706 1.3574 0.673935
Li -1.59914 -1.2735 2.38569
Li 1.66288 1.82717 -0.905876
Li 0.925008 -2.39305 1.22782
Li 1.44994 -0.543901 -1.85697
Li -1.6778 -1.54408 -0.432214
Li -0.155245 0.711565 0.955526
Li 3.04927 0.353436 0.711125
Li -1.31314 1.14696 -1.71443
9
 Atoms. Timestep: 2300
Li -3.04 1.13392 0.482396
Li -1.4532 -1.53142 2.43367
Li 1.27253 2.24554 -0.854288
Li 0.922678 -1.88066 1.25749
Li 1.68453 -0.757308 -1.83015
Li -1.80972 -1.40814 -0.424291
Li -0.403906 0.343161 0.822595
Li 3.10849 0.572485 0.904488
Li -1.17638 1.25326 -1.40615
9
 Atoms. Timestep: 2350
Li -2.92365 0.77854 0.51877
Li -1.5243 -1.79568 2.44143
Li 1.06172 2.54523 -0.573764
Li 1.35495 -1.71304 1.03056
Li 1.66558 -0.78832 -1.45126
Li -1.92966 -1.42591 -0.537216
Li -0.188276 0.691346 1.03915
Li 2.74251 0.68118 0.844911
Li -1.16928 1.25542 -1.65923
9
 Atoms. Timestep: 2400
Li -2.87038 0.619838 0.764536
Li -1.45745 -1.79847 2.07839
Li 1.01066 2.90516 -0.338316
Li 1.66819 -1.9659 1.1667
Li 1.33513 -0.483642 -1.3923
Li -1.64481 -1.55307 -0.647901
Li -0.238908 0.881617 1.17334
Li 2.40423 0.816139 0.699676
Li -1.12721 0.97704 -1.67445
9
 Atoms. Timestep: 2450
Li -3.00973 0.362053 0.862191
Li -1.22747 -1.59733 1.80234
Li 0.721103 3.19651 -0.324576
Li 1.62585 -2.08141 1.35442
Li 1.10359 -0.412814 -1.53804
Li -1.16085 -1.69219 -0.890491
Li -0.175917 0.685241 1.1451
Li 2.47221 0.877454 0.687786
Li -1.2736 1.13231 -1.19527
9
 Atoms. Timestep: 2500
Li -3.16031 0.0104192 0.855615
Li -1.15105 -1.69706 1.9009
Li 0.378457 3.07372 -0.25265
Li 1.39006 -1.82324 1.24001
Li 1.44179 -0.445553 -1.44364
Li -0.894889 -1.87994 -1.14141
Li 0.0662583 0.600619 1.03268
Li 2.7598 0.875848 0.445257
Li -1.75303 1.72332 -0.766182
9
 Atoms. Timestep: 2550
Li -3.12434 -0.331367 0.830646
Li -1.345 -1.88329 1.94871
Li 0.492018 2.99229 -0.101773
Li 1.46847 -1.59058 0.85491
Li 1.57905 -0.459078 -1.45534
Li -0.777661 -1.88628 -0.952633
Li -0.176945 0.520462 0.670239
Li 3.27534 0.975035 0.290265
Li -2.30599 1.96959 -0.350726
9
 Atoms. Timestep: 2600
Li -3.11344 -0.497432 0.621697
Li -1.08557 -2.13486 1.9771
Li 0.675649 2.9077 -0.0479883
Li 1.57947 -1.72013 0.829307
Li 1.5262 -0.25609 -1.83269
Li -0.778134 -1.94629 -0.65708
Li -0.561381 0.45896 0.325735
Li 3.43172 1.00318 0.160905
Li -2.57636 2.27066 0.127937
9
 Atoms. Timestep: 2650
Li -2.93352 -0.651151 0.398187
Li -0.784941 -2.14178 2.04231
Li 0.883257 2.75417 -0.0772484
Li 1.51405 -1.59968 0.666801
Li 1.29172 -0.0779163 -1.84412
Li -0.890549 -2.40052 -0.852958
Li -0.526376 0.479375 0.235663
Li 3.15334 0.894317 -0.0684783
Li -2.59119 2.53407 0.698912
9
 Atoms. Timestep: 2700
Li -2.81436 -0.831068 0.259971
Li -0.706205 -1.90432 1.9066
Li 1.0599 2.66567 -0.209732
Li 1.50941 -1.46595 0.308913
Li 0.890678 -0.0825374 -2.02466
Li -0.917995 -2.45994 -0.870176
Li -0.45868 0.315427 0.328631
Li 2.81396 0.735256 -0.153739
Li -2.24011 2.4707 1.2926
9
 Atoms. Timestep: 2750
Li -2.97969 -0.92231 0.252397
Li -0.787086 -1.69685 1.80088
Li 0.798363 2.72909 -0.410505
Li 1.60206 -1.93634 0.0447317
Li 0.469926 -0.235635 -2.44754
Li -0.814079 -2.24464 -0.896099
Li -0.330715 0.515043 0.389307
Li 2.85961 0.624837 -0.185301
Li -1.6593 2.23392 1.90032
9
 Atoms. Timestep: 2800
Li -3.00698 -0.715565 0.321507
Li -0.845612 -1.68995 1.86121
Li 0.592893 2.90905 -0.692796
Li 1.71776 -2.14452 -0.0850389
Li 0.249613 -0.326936 -2.56989
Li -1.076 -2.07487 -1.02747
Li 0.0515899 0.126718 -0.0234698
Li 2.57039 0.525799 -0.298179
Li -1.07192 2.0789 2.56965
9
 Atoms. Timestep: 2850
Li -2.85311 -0.241589 0.482964
Li -0.874948 -1.73984 1.83325
Li 0.398628 2.79196 -0.902623
Li 1.53757 -2.16723 -0.193453
Li 0.387978 -0.307953 -2.92706
Li -1.43354 -2.29934 -0.994976
Li -0.236966 0.0427349 -0.00686327
Li 2.5967 0.569615 -0.573196
Li -0.319349 1.68544 2.96935
9
 Atoms. Timestep: 2900
Li -2.85035 0.256562 0.738294
Li -0.91162 -1.86028 1.77905
Li 0.277476 2.48175 -1.08697
Li 1.06496 -1.98801 -0.302189
Li 0.599583 -0.37088 -2.8162
Li -1.58077 -2.33669 -0.86006
Li -0.245432 0.169074 -0.22592
Li 2.41177 0.590663 -0.91333
Li 0.455703 1.08465 3.05627
9
 Atoms. Timestep: 2950
Li -2.86176 0.610396 1.05899
Li -0.894492 -1.68695 1.72314
Li 0.338803 2.66467 -1.50064
Li 1.09433 -2.27115 -0.418309
Li 0.561013 -0.654244 -2.66271
Li -1.8123 -2.13404 -0.836534
Li -0.573049 0.262227 -0.130584
Li 2.26376 0.661847 -0.918583
Li 1.11926 0.335683 2.80684
9
 Atoms. Timestep: 3000
Li -2.96103 0.83657 1.47665
Li -0.844153 -1.38641 1.76432
Li 0.381175 2.65472 -1.82216
Li 1.10523 -2.38779 -0.377051
Li 0.188748 -1.05687 -2.54419
Li -1.95046 -1.80403 -0.946212
Li -0.430376 0.483553 -0.272551
Li 2.15612 0.73591 -0.526745
Li 1.59954 -0.441204 2.20979
9
 Atoms. Timestep: 3050
Li -2.77674 0.896493 1.71659
Li -1.00948 -1.15775 1.62001
Li 0.454802 2.46922 -2.00047
Li 0.830339 -2.255 -0.142202
Li 0.0561482 -1.18541 -2.52102
Li -2.08931 -1.52505 -0.780592
Li -0.56947 0.590723 -0.310478
Li 2.24362 0.754646 -0.312265
Li 2.10844 -1.01317 1.6303
9
 Atoms. Timestep: 3100
Li -2.537 1.02356 1.7093
Li -0.920661 -1.20938 1.85997
Li 0.626256 2.26274 -2.15033
Li 0.139033 -2.37662 -0.302266
Li 0.133969 -0.965966 -2.66245
Li -2.45418 -1.52892 -0.643613
Li -0.639852 0.710887 -0.274938
Li 2.27532 0.913927 -0.520029
Li 2.62322 -1.21769 1.92348
9
 Atoms. Timestep: 3150
Li -2.40261 1.17763 1.59449
Li -0.76705 -1.2302 2.14691
Li 0.663032 2.13085 -2.4114
Li -0.18814 -2.42616 -0.388159
Li 0.205887 -0.46696 -2.62447
Li -2.68508 -1.34967 -0.479726
Li -0.531088 0.364748 -0.262681
Li 2.20089 0.725189 -0.518884
Li 2.74236 -1.18092 2.01994
9
 Atoms. Timestep: 3200
Li -2.31318 1.1503 1.44822
Li -0.665857 -1.13646 2.18437
Li 0.620213 2.32561 -2.41404
Li -0.167072 -2.41074 -0.456696
Li 0.405378 -0.561506 -2.6924
Li -2.8616 -1.04388 -0.207809
Li -0.425266 0.211228 -0.0276289
Li 2.164 0.329698 -0.465784
Li 2.46864 -0.903488 1.93216
9
 Atoms. Timestep: 3250
Li -2.46965 1.23762 1.58758
Li -0.657583 -1.17106 2.18581
Li 0.569075 2.43179 -2.06781
Li -0.0436614 -2.35715 -0.409254
Li 0.655314 -0.854483 -2.58203
Li -2.76426 -0.963125 0.0293026
Li -0.284744 0.457611 -0.26917
Li 2.39246 0.0249381 -0.81221
Li 1.81125 -0.560336 1.9339
9
 Atoms. Timestep: 3300
Li -2.44261 1.32226 1.75769
Li -1.19632 -1.21909 2.15134
Li 0.630783 2.47078 -1.70074
Li 0.152754 -2.11509 -0.0799323
Li 0.671266 -1.07103 -2.64561
Li -2.48012 -1.14199 -0.071121
Li -0.308799 0.40533 -0.21788
Li 2.75381 -0.064968 -0.994554
Li 1.40749 -0.00671051 1.74309
9
 Atoms. Timestep: 3350
Li -2.24787 1.20451 1.68719
Li -1.36034 -1.17093 2.55724
Li 0.849602 2.58119 -1.42874
Li 0.593362 -2.13785 0.334311
Li 0.590363 -1.14676 -2.55072
Li -2.57184 -1.39159 -0.758226
Li -0.710349 0.552944 -0.339502
Li 2.72997 -0.0339925 -0.88873
Li 1.29388 0.480926 1.7019
9
 Atoms. Timestep: 3400
Li -2.1876 1.23181 1.62135
Li -1.22135 -1.22449 2.62113
Li 1.10144 2.49082 -1.02166
Li 0.937528 -1.77499 0.681275
Li 0.484482 -1.14602 -2.10593
Li -2.46242 -1.72144 -1.3213
Li -0.837804 0.545743 -0.791065
Li 2.2672 0.0863578 -0.620941
Li 1.06381 0.81001 1.62466
9
 Atoms. Timestep: 3450
Li -2.09241 1.23723 1.53107
Li -1.00314 -1.16847 2.48402
Li 1.10237 2.72229 -0.543287
Li 0.975839 -1.59365 0.972988
Li 0.491509 -1.66739 -1.94961
Li -2.08944 -1.96761 -1.76682
Li -0.948693 0.654881 -0.749013
Li 2.31357 0.192859 -0.555495
Li 0.375653 1.22264 1.61118
9
 Atoms. Timestep: 3500
Li -2.83811 1.2612 1.58318
Li -1.25495 -0.862099 2.54644
Li 0.835707 3.19705 -0.22332
Li 1.2031 -1.62853 0.875416
Li 0.955205 -1.9945 -1.69803
Li -1.95512 -2.09233 -2.01454
Li -0.635153 0.427344 -0.823833
Li 2.41617 0.285171 -0.654241
Li 0.381197 1.32718 1.74247
9
 Atoms. Timestep: 3550
Li -3.40158 1.23219 1.48669
Li -1.42878 -0.59881 2.38526
Li 0.511993 3.4148 -0.0522832
Li 1.15427 -1.4554 1.15244
Li 1.37603 -2.07496 -1.7261
Li -1.69943 -2.06087 -2.06032
Li -0.177008 -0.0315169 -0.651044
Li 2.29594 0.579426 -0.717219
Li 0.463387 1.13666 1.74543
9
 Atoms. Timestep: 3600
Li -3.72903 1.15173 1.30992
Li -1.6141 -0.572345 2.02544
Li 0.170515 3.31446 0.0725093
Li 1.19552 -1.47256 1.49578
Li 1.64079 -1.93024 -1.7063
Li -1.3257 -2.11068 -2.06223
Li -0.38813 -0.261386 -0.431508
Li 2.39253 0.894211 -0.583537
Li 0.744073 1.26801 1.58769
9
 Atoms. Timestep: 3650
Li -3.84911 1.04072 1.07065
Li -1.71346 -0.61709 1.86863
Li -0.206317 3.20473 -0.074905
Li 1.24807 -1.58754 1.62359
Li 1.6756 -1.5216 -1.49038
Li -1.02585 -2.45946 -2.20495
Li -0.236393 0.0573723 -0.422408
Li 2.29174 0.986019 -0.488786
Li 0.899241 1.22738 1.8775
9
 Atoms. Timestep: 3700
Li -3.75008 0.917295 0.789993
Li -1.63485 -0.689521 1.89679
Li -0.473558 2.8255 -0.21669
Li 1.10535 -1.47562 1.34978
Li 1.70215 -1.37807 -1.32153
Li -0.61622 -2.59636 -2.09972
Li -0.408491 0.376921 -0.560277
Li 2.36861 1.2047 -0.364591
Li 0.793221 1.10201 2.23988
9
 Atoms. Timestep: 3750
Li -3.3427 0.777752 0.487316
Li -1.47969 -0.679553 1.879
Li -0.592051 2.9615 -0.136859
Li 0.919998 -1.38353 1.01911
Li 1.9629 -1.24217 -1.4424
Li -0.40269 -2.60555 -1.81366
Li -0.717749 -0.141484 -0.603259
Li 2.23596 1.40439 -0.0245103
Li 0.510114 1.06254 2.21094
9
 Atoms. Timestep: 3800
Li -2.84772 0.820191 0.167062
Li -1.70865 -0.868449 2.17984
Li -0.577188 2.75108 0.0396189
Li 1.08445 -1.53568 0.867353
Li 2.25869 -0.829163 -1.77382
Li -0.310073 -2.75544 -1.43011
Li -0.775708 -0.162041 -0.9007
Li 1.86918 1.29517 0.123091
Li 0.113813 1.22582 2.08298
9
 Atoms. Timestep: 3850
Li -2.76515 1.16263 0.237673
Li -1.78981 -1.19314 2.22924
Li -0.583582 2.5083 -0.133826
Li 1.12297 -1.42993 0.63544
Li 2.21154 -0.558972 -2.04092
Li -0.136631 -3.01993 -1.03992
Li -0.214369 -0.0078968 -1.17303
Li 1.73776 1.11952 0.0180349
Li -0.459401 1.08431 2.33567
9
 Atoms. Timestep: 3900
Li -2.71945 1.10449 0.526585
Li -1.85869 -1.67275 1.96807
Li -0.338015 2.59349 -0.457254
Li 1.22717 -1.23611 0.744646
Li 2.18962 -0.644029 -2.40235
Li -0.177731 -3.15191 -0.840836
Li -0.545865 -0.0662296 -1.51802
Li 2.08159 1.38487 0.419007
Li -0.71609 1.03183 2.29525
9
 Atoms. Timestep: 3950
Li -2.71204 0.879601 0.514576
Li -1.68358 -1.89474 1.45729
Li -0.107957 2.44999 -0.621284
Li 1.02333 -0.969888 0.709981
Li 1.90752 -0.742276 -2.45913
Li -0.343408 -2.92534 -0.6328
Li -0.744833 -0.197349 -1.3933
Li 2.23556 1.53304 0.682179
Li -0.411508 0.867223 2.12131
9
 Atoms. Timestep: 4000
Li -2.67183 0.639599 0.389276
Li -1.61938 -1.49783 1.31698
Li 0.0377476 2.07801 -0.578993
Li 1.14151 -1.01729 0.41426
Li 1.38457 -0.855746 -2.21835
Li -0.320027 -2.93746 -1.0226
Li -0.929387 -0.286313 -1.1649
Li 2.25031 1.55992 0.84355
Li -0.0899899 0.975597 2.04504
9
 Atoms. Timestep: 4050
Li -3.0197 1.14744 0.616754
Li -1.27871 -1.20333 1.48744
Li 0.0571537 1.83038 -0.527322
Li 1.53084 -1.27741 0.501936
Li 1.26542 -1.01156 -2.40029
Li -0.220654 -3.16649 -1.62876
Li -1.40152 -0.531071 -1.27744
Li 2.48768 1.40895 0.911356
Li -0.218049 1.14501 2.01215
9
 Atoms. Timestep: 4100
Li -2.96925 1.59446 0.824816
Li -0.941521 -1.21537 1.42245
Li 0.0298847 1.45071 -0.719906
Li 1.53386 -1.39093 0.574132
Li 1.27151 -0.994585 -2.6034
Li -0.288231 -3.20298 -1.97768
Li -1.75507 -0.71392 -1.09964
Li 2.55103 1.1023 0.868577
Li -0.213611 1.44247 2.1266
9
 Atoms. Timestep: 4150
Li -2.50144 1.77995 0.947159
Li -0.934573 -1.16069 1.54517
Li 0.0883107 0.896231 -0.723829
Li 1.54238 -1.6154 0.211693
Li 1.14765 -0.8285 -2.45923
Li -0.515888 -2.99365 -2.07344
Li -1.87468 -0.837278 -1.01406
Li 2.36213 0.94842 0.734318
Li -0.0830482 1.6783 2.03574
9
 Atoms. Timestep: 4200
Li -2.1512 1.65737 0.774204
Li -0.877817 -0.803673 1.65681
Li -0.105417 0.704772 -0.408521
Li 1.30015 -1.94009 -0.152954
Li 1.08268 -0.730381 -2.57713
Li -0.684348 -2.83122 -2.01785
Li -2.14754 -0.862452 -0.896475
Li 2.46975 0.849138 0.653077
Li 0.352144 1.69771 2.04141
9
 Atoms. Timestep: 4250
Li -2.35692 1.54826 0.759648
Li -0.791953 -0.558225 1.73925
Li 0.266095 0.637905 -0.66859
Li 0.896467 -2.0051 -0.0996535
Li 0.988978 -0.623037 -2.90739
Li -0.785511 -2.77435 -1.97637
Li -2.52783 -0.747529 -0.585853
Li 2.83216 0.491811 0.428502
Li 0.719278 1.73186 2.34198
9
 Atoms. Timestep: 4300
Li -2.44158 1.63611 0.920967
Li -0.753339 -0.396226 1.74041
Li 0.455971 0.829846 -0.702545
Li 0.739823 -1.79539 0.122113
Li 0.86064 -0.778122 -3.1116
Li -1.13814 -2.51226 -2.02215
Li -2.43028 -0.856691 -0.383704
Li 2.92055 0.03505 0.20459
Li 1.02419 1.58836 2.31436
9
 Atoms. Timestep: 4350
Li -2.38966 1.78913 1.01866
Li -0.797003 -0.20665 2.00545
Li 0.222783 1.09058 -0.491335
Li 0.643412 -1.7668 -0.0460807
Li 0.751158 -0.969749 -3.02237
Li -1.27596 -2.35657 -2.14413
Li -2.18853 -0.731954 -0.132499
Li 2.88285 -0.334394 0.0541898
Li 1.38079 1.37075 1.97922
9
 Atoms. Timestep: 4400
Li -2.25424 1.97572 1.02432
Li -0.583941 -0.213175 2.44776
Li -0.124297 1.1161 -0.286629
Li 0.227181 -1.66935 -0.263619
Li 0.939882 -0.892329 -2.68132
Li -1.54654 -2.47802 -2.16676
Li -2.05716 -0.517657 -0.133824
Li 2.76709 -0.421093 -0.157719
Li 1.8494 1.19248 1.65504
9
 Atoms. Timestep: 4450
Li -2.17697 2.0865 1.20051
Li -0.383584 -0.177798 2.37193
Li 0.175417 1.20419 -0.326753
Li 0.175312 -1.71087 0.0719681
Li 1.04152 -0.658282 -2.51845
Li -1.80615 -2.46623 -2.08001
Li -2.50242 -0.493829 -0.121445
Li 2.66375 -0.579138 -0.57291
Li 2.01447 1.15621 1.69052
9
 Atoms. Timestep: 4500
Li -1.95605 1.91666 1.31367
Li -0.417313 0.0653032 2.10199
Li 0.354944 0.994086 -0.418338
Li 0.103517 -1.76578 0.191123
Li 0.529972 -0.470588 -2.74874
Li -1.8404 -2.25524 -1.79317
Li -2.47955 -0.347927 -0.0218211
Li 2.79891 -0.501644 -0.350695
Li 2.08884 1.03479 1.76182
9
 Atoms. Timestep: 4550
Li -1.96922 2.36168 1.1958
Li -0.368597 -0.133838 2.22217
Li 0.257937 0.868825 -0.345249
Li 0.333234 -1.82193 -0.040717
Li -0.00886255 -0.500654 -2.72328
Li -1.77221 -2.14097 -1.72606
Li -2.05919 -0.19945 0.148613
Li 2.64674 -0.477826 -0.305229
Li 2.10341 1.04195 1.95021
9
 Atoms. Timestep: 4600
Li -1.88537 2.78445 1.00423
Li -0.216349 -0.564607 2.35265
Li 0.400204 1.2978 -0.126658
Li 0.411356 -1.89009 -0.0553191
Li -0.164656 -0.420545 -2.59184
Li -2.06131 -2.41054 -1.72634
Li -1.97874 -0.279531 0.187855
Li 2.7005 -0.306543 -0.410119
Li 1.93818 1.11199 2.07855
9
 Atoms. Timestep: 4650
Li -1.73157 2.82191 0.74503
Li -0.137805 -0.961152 2.33808
Li 0.390012 1.60919 -0.123315
Li 0.271195 -1.8782 -0.145463
Li -0.152555 -0.294935 -2.09113
Li -2.20853 -2.58375 -1.51626
Li -1.80541 -0.278087 0.0558
Li 2.68448 0.0767067 -0.439937
Li 1.81614 1.10946 2.20016
9
 Atoms. Timestep: 4700
Li -1.9656 2.7426 0.618976
Li -0.194382 -1.12659 2.30472
Li 0.393904 1.81567 -0.206855
Li 0.570893 -2.2359 -0.106743
Li -0.0366577 -0.101093 -2.13781
Li -2.08303 -2.51491 -1.19736
Li -1.6985 0.0453463 0.16662
Li 2.5207 0.263459 -0.385942
Li 1.60352 0.985132 2.2294
9
 Atoms. Timestep: 4750
Li -2.48273 2.69532 0.616753
Li -0.381044 -1.27019 2.20784
Li 0.336038 2.27823 -0.168197
Li 0.886315 -2.28453 -0.156502
Li 0.206448 -0.230281 -2.18682
Li -1.7405 -2.2052 -0.809644
Li -1.39622 0.136305 0.265473
Li 2.40567 0.062142 -0.335037
Li 1.26554 0.881288 2.0476
9
 Atoms. Timestep: 4800
Li -2.89469 2.55614 0.618963
Li -0.54741 -1.71999 2.13419
Li 0.374173 2.69251 -0.291579
Li 1.13878 -2.29515 -0.0524901
Li 0.335569 -0.464052 -1.97142
Li -1.47972 -2.12009 -0.600653
Li -0.958352 0.484817 0.17438
Li 2.29503 0.196469 -0.281858
Li 0.829344 0.846055 1.86982
9
 Atoms. Timestep: 4850
Li -3.07676 2.24822 0.594599
Li -0.698418 -1.94312 1.9474
Li 0.587797 3.18096 -0.48335
Li 1.39508 -2.43099 0.215418
Li 0.386316 -0.778474 -2.06535
Li -1.46383 -2.1815 -0.546021
Li -1.13434 0.512539 -0.0958972
Li 2.39466 0.74739 -0.178438
Li 0.700384 0.852355 2.24281
9
 Atoms. Timestep: 4900
Li -3.2307 1.94274 0.616294
Li -0.751362 -1.78208 2.01316
Li 0.690019 3.29259 -0.568492
Li 1.52941 -2.23033 0.344425
Li 0.678216 -1.06802 -2.00693
Li -1.5188 -2.3567 -0.818222
Li -0.888355 0.473962 -0.256326
Li 2.07889 1.14216 -0.0641223
Li 0.50677 0.739342 2.31567
9
 Atoms. Timestep: 4950
Li -3.20715 1.54096 0.639644
Li -0.905406 -1.58958 1.7925
Li 0.440688 3.44774 -0.657366
Li 1.45631 -1.79659 0.60809
Li 1.01796 -1.19742 -1.99997
Li -1.37476 -2.33075 -0.913955
Li -0.558738 0.252017 -0.297046
Li 1.90186 0.96143 0.0623377
Li 0.331336 0.732166 2.2025
9
 Atoms. Timestep: 5000
Li -2.90221 0.999771 0.659478
Li -1.47513 -1.59835 1.62188
Li 0.092502 3.33403 -0.669438
Li 1.31762 -1.3727 0.964981
Li 1.32461 -1.19211 -2.10368
Li -1.10142 -2.43242 -1.02907
Li -0.685487 0.233852 -0.392503
Li 2.2983 0.878411 -0.0800787
Li 0.245494 0.965659 2.25371
9
 Atoms. Timestep: 5050
Li -2.80196 0.684143 0.844914
Li -1.8332 -1.54059 1.56137
Li -0.224671 2.88714 -0.554822
Li 0.89707 -1.29077 1.14898
Li 1.50049 -1.08916 -1.87089
Li -0.74116 -2.60686 -1.17071
Li -0.144229 0.375193 -0.608539
Li 2.41905 1.02457 -0.36987
Li 0.0583958 1.11319 1.97583
9
 Atoms. Timestep: 5100
Li -2.70341 1.09926 0.769022
Li -1.77969 -1.99845 1.54384
Li -0.488145 2.95539 -0.312689
Li 0.842617 -1.5293 1.09417
Li 2.03355 -1.37705 -1.81481
Li -0.423697 -2.49515 -1.02143
Li -0.465643 0.0658562 -0.8238
Li 2.38316 1.1851 -0.468534
Li -0.251212 1.35476 1.68298
9
 Atoms. Timestep: 5150
Li -2.69581 1.43058 0.506922
Li -1.782 -2.19084 1.35929
Li -0.742956 3.15683 -0.391196
Li 1.19858 -1.43178 0.992979
Li 2.43088 -1.6137 -1.62979
Li -0.347109 -2.80101 -0.977147
Li -0.814493 0.155693 -0.836295
Li 1.9558 1.16009 -0.445294
Li -0.036661 1.08176 1.74475
9
 Atoms. Timestep: 5200
Li -2.91036 1.70065 0.433793
Li -1.55009 -2.01529 1.1196
Li -0.736109 3.07316 -0.495038
Li 1.32752 -1.3228 0.809451
Li 2.50781 -1.70264 -1.42099
Li -0.219493 -2.92412 -1.00789