# LAMMPS data file for 5 Li atoms

5 atoms
1 atom types

0.0 20.0 xlo xhi
0.0 20.0 ylo yhi
0.0 20.0 zlo zhi

Masses

1 6.94

Atoms

1 1 5.0 5.0 5.0
2 1 10.0 5.0 5.0
3 1 15.0 5.0 5.0
4 1 5.0 10.0 5.0
5 1 10.0 10.0 5.0
