5
 Atoms. Timestep: 130
Li 6.68465 6.465 5.00303
Li 9.40988 5.80782 4.99766
Li 14.4305 5.08229 4.99916
Li 5.87673 9.13816 4.99537
Li 8.59828 8.50673 5.00478
5
 Atoms. Timestep: 140
Li 6.7574 6.55678 5.03335
Li 9.43476 5.70156 4.97427
Li 14.4418 5.07056 4.99076
Li 5.84527 9.11757 4.94907
Li 8.52076 8.55353 5.05256
5
 Atoms. Timestep: 150
Li 6.82229 6.62895 5.06378
Li 9.45762 5.60117 4.95104
Li 14.4526 5.05893 4.98236
Li 5.8061 9.10484 4.90226
Li 8.46138 8.60611 5.10056
5
 Atoms. Timestep: 160
Li 6.86957 6.66076 5.09434
Li 9.47726 5.50772 4.92818
Li 14.4629 5.04738 4.97395
Li 5.75437 9.10457 4.8541
Li 8.43593 8.67957 5.14943
5
 Atoms. Timestep: 170
Li 6.89844 6.65021 5.12476
Li 9.49298 5.4209 4.90584
Li 14.4726 5.03591 4.96555
Li 5.69281 9.11419 4.80443
Li 8.44321 8.77879 5.19943
5
 Atoms. Timestep: 180
Li 6.91874 6.61693 5.15467
Li 9.50446 5.34003 4.88413
Li 14.4817 5.02451 4.95714
Li 5.62939 9.12682 4.75434
Li 8.46574 8.89171 5.24972
5
 Atoms. Timestep: 190
Li 6.93888 6.57959 5.18372
Li 9.51163 5.26439 4.86314
Li 14.4902 5.01317 4.94872
Li 5.57076 9.13709 4.70522
Li 8.48853 9.00576 5.29921
5
 Atoms. Timestep: 200
Li 6.96229 6.54735 5.21157
Li 9.51455 5.19336 4.84293
Li 14.4982 5.00189 4.9403
Li 5.52037 9.14251 4.65809
Li 8.50464 9.11489 5.34711
5
 Atoms. Timestep: 210
Li 6.98981 6.52349 5.23797
Li 9.51332 5.12647 4.82354
Li 14.5055 4.99065 4.93187
Li 5.4795 9.14233 4.6136
Li 8.51183 9.21706 5.39302
5
 Atoms. Timestep: 220
Li 7.02136 6.50877 5.26271
Li 9.5081 5.06336 4.80501
Li 14.5124 4.97946 4.92343
Li 5.44844 9.13654 4.5721
Li 8.50974 9.31187 5.43676
5
 Atoms. Timestep: 230
Li 7.05657 6.50308 5.28562
Li 9.49907 5.0038 4.78737
Li 14.5186 4.9683 4.91498
Li 5.42711 9.12542 4.53383
Li 8.49862 9.3994 5.4782
5
 Atoms. Timestep: 240
Li 7.09502 6.50609 5.30659
Li 9.48643 4.94758 4.77064
Li 14.5244 4.95717 4.90653
Li 5.41532 9.1093 4.49898
Li 8.47889 9.47986 5.51726
5
 Atoms. Timestep: 250
Li 7.13622 6.51746 5.32551
Li 9.47039 4.89457 4.75484
Li 14.5295 4.94606 4.89806
Li 5.41292 9.08852 4.46772
Li 8.45092 9.5534 5.55386
5
 Atoms. Timestep: 260
Li 7.17973 6.53695 5.34229
Li 9.45117 4.84466 4.73999
Li 14.5342 4.93497 4.88959
Li 5.41984 9.06335 4.44025
Li 8.41503 9.62007 5.58788
5
 Atoms. Timestep: 270
Li 7.2251 6.56444 5.35683
Li 9.42894 4.7978 4.72608
Li 14.5384 4.92389 4.88111
Li 5.43612 9.03406 4.41678
Li 8.37142 9.67981 5.61921
5
 Atoms. Timestep: 280
Li 7.27192 6.59988 5.36903
Li 9.40385 4.75399 4.71314
Li 14.5421 4.91282 4.87261
Li 5.46188 9.00086 4.39757
Li 8.32024 9.73245 5.64765
5
 Atoms. Timestep: 290
Li 7.31986 6.64324 5.37876
Li 9.37594 4.71333 4.7012
Li 14.5453 4.90176 4.86411
Li 5.4973 8.964 4.38292
Li 8.26155 9.77768 5.67301
5
 Atoms. Timestep: 300
Li 7.36867 6.69447 5.38591
Li 9.34523 4.67598 4.69032
Li 14.5481 4.8907 4.8556
Li 5.54251 8.92373 4.37309
Li 8.19545 9.81511 5.69507
5
 Atoms. Timestep: 310
Li 7.41828 6.75335 5.39042
Li 9.31164 4.64223 4.68058
Li 14.5505 4.87965 4.84709
Li 5.59743 8.88047 4.36827
Li 8.12216 9.84429 5.71364
5
 Atoms. Timestep: 320
Li 7.46895 6.81917 5.39242
Li 9.27505 4.61245 4.67207
Li 14.5524 4.86861 4.83856
Li 5.66128 8.83488 4.36823
Li 8.04229 9.86489 5.72872
5
 Atoms. Timestep: 330
Li 7.52169 6.89023 5.39248
Li 9.23537 4.58706 4.6649
Li 14.554 4.85757 4.83003
Li 5.73162 8.78809 4.3718
Li 7.95734 9.87705 5.74079
5
 Atoms. Timestep: 340
Li 7.57905 6.96277 5.39214
Li 9.19253 4.56651 4.65915
Li 14.5552 4.84653 4.82149
Li 5.8026 8.74189 4.37566
Li 7.87066 9.88229 5.75157
5
 Atoms. Timestep: 350
Li 7.64599 7.03022 5.39431
Li 9.14657 4.55118 4.65489
Li 14.556 4.8355 4.81295
Li 5.86316 8.69845 4.37293
Li 7.78832 9.88465 5.76491
5
 Atoms. Timestep: 360
Li 7.7285 7.08479 5.40252
Li 9.0976 4.54135 4.65216
Li 14.5564 4.82447 4.8044
Li 5.89945 8.65863 4.3543
Li 7.71802 9.89076 5.78662
5
 Atoms. Timestep: 370
Li 7.8284 7.12328 5.41782
Li 9.0459 4.5371 4.65096
Li 14.5566 4.81346 4.79585
Li 5.90549 8.62037 4.31482
Li 7.66362 9.90579 5.82055
5
 Atoms. Timestep: 380
Li 7.94037 7.14994 5.43739
Li 8.99186 4.53824 4.65122
Li 14.5564 4.80245 4.7873
Li 5.88991 8.58071 4.25946
Li 7.62144 9.92865 5.86463
5
 Atoms. Timestep: 390
Li 8.05655 7.17176 5.45737
Li 8.93601 4.54425 4.65279
Li 14.556 4.79145 4.77874
Li 5.86684 8.53864 4.19794
Li 7.58465 9.9539 5.91315
5
 Atoms. Timestep: 400
Li 8.17119 7.1942 5.47542
Li 8.87889 4.55423 4.65542
Li 14.5552 4.78048 4.77019
Li 5.84626 8.49476 4.13774
Li 7.54845 9.97634 5.96124
5
 Atoms. Timestep: 410
Li 8.28116 7.22057 5.49081
Li 8.82099 4.56716 4.65877
Li 14.5542 4.76952 4.76164
Li 5.83288 8.45005 4.08274
Li 7.51079 9.9927 6.00604
5
 Atoms. Timestep: 420
Li 8.385 7.25263 5.50358
Li 8.7626 4.5822 4.66257
Li 14.5529 4.75858 4.7531
Li 5.82834 8.40532 4.03459
Li 7.47117 10.0013 6.04616
5
 Atoms. Timestep: 430
Li 8.4821 7.29093 5.51393
Li 8.70382 4.59902 4.66669
Li 14.5513 4.74767 4.74456
Li 5.83298 8.3611 3.99385
Li 7.42976 10.0013 6.08098
5
 Atoms. Timestep: 440
Li 8.57223 7.33503 5.52195
Li 8.64465 4.61798 4.67121
Li 14.5495 4.7368 4.73602
Li 5.84661 8.31777 3.96063
Li 7.38699 9.99242 6.11019
5
 Atoms. Timestep: 450
Li 8.65521 7.38384 5.52757
Li 8.58507 4.63994 4.67635
Li 14.5475 4.72595 4.7275
Li 5.86895 8.2756 3.93495
Li 7.34328 9.97467 6.13364
5
 Atoms. Timestep: 460
Li 8.73085 7.43595 5.5306
Li 8.52516 4.666 4.68239
Li 14.5452 4.71515 4.71898
Li 5.89975 8.23475 3.9168
Li 7.29903 9.94816 6.15124
5
 Atoms. Timestep: 470
Li 8.79883 7.48994 5.53082
Li 8.46505 4.69723 4.68957
Li 14.5427 4.70438 4.71048
Li 5.93884 8.19536 3.90624
Li 7.25458 9.91309 6.16289
5
 Atoms. Timestep: 480
Li 8.85883 7.54452 5.52802
Li 8.40491 4.73453 4.69808
Li 14.54 4.69367 4.70198
Li 5.98615 8.15748 3.90337
Li 7.21014 9.8698 6.16855
5
 Atoms. Timestep: 490
Li 8.91055 7.59852 5.52196
Li 8.34486 4.77864 4.70797
Li 14.537 4.683 4.6935
Li 6.04172 8.12109 3.90836
Li 7.16585 9.81875 6.16822
5
 Atoms. Timestep: 500
Li 8.9538 7.65087 5.51238
Li 8.28501 4.83014 4.71923
Li 14.5339 4.67238 4.68503
Li 6.10562 8.08594 3.92125
Li 7.12171 9.76066 6.1621
5
 Atoms. Timestep: 510
Li 8.98856 7.70046 5.49897
Li 8.22537 4.88959 4.73178
Li 14.5305 4.66182 4.67658
Li 6.17789 8.05146 3.94184
Li 7.07768 9.69668 6.15083
5
 Atoms. Timestep: 520
Li 9.0151 7.74614 5.48133
Li 8.16584 4.95755 4.74548
Li 14.5269 4.65131 4.66814
Li 6.25839 8.01625 3.96907
Li 7.03373 9.62875 6.13599
5
 Atoms. Timestep: 530
Li 9.03405 7.78678 5.45906
Li 8.10621 5.03469 4.76007
Li 14.5232 4.64086 4.65971
Li 6.34651 7.97748 4.00015
Li 6.99005 9.56019 6.121
5
 Atoms. Timestep: 540
Li 9.04652 7.82141 5.43196
Li 8.04608 5.12176 4.77525
Li 14.5192 4.63047 4.6513
Li 6.44095 7.93011 4.02952
Li 6.94722 9.49626 6.11198
5
 Atoms. Timestep: 550
Li 9.05433 7.84971 5.40044
Li 7.98489 5.21941 4.79054
Li 14.5151 4.62014 4.6429
Li 6.53982 7.86755 4.0494
Li 6.90583 9.4432 6.11672
5
 Atoms. Timestep: 560
Li 9.06067 7.87266 5.36626
Li 7.92215 5.32721 4.80548
Li 14.5108 4.60987 4.63451
Li 6.64057 7.78608 4.05426
Li 6.86578 9.40418 6.13948
5
 Atoms. Timestep: 570
Li 9.07112 7.89324 5.33338
Li 7.85919 5.4393 4.82078
Li 14.5064 4.59967 4.62614
Li 6.73672 7.69205 4.04335
Li 6.82659 9.37574 6.17635
5
 Atoms. Timestep: 580
Li 9.09352 7.91652 5.30754
Li 7.8062 5.52927 4.84426
Li 14.5018 4.58953 4.61777
Li 6.80983 7.61412 4.01162
Li 6.7887 9.35056 6.21881
5
 Atoms. Timestep: 590
Li 9.13122 7.94653 5.29222
Li 7.78562 5.54498 4.89706
Li 14.497 4.57946 4.60943
Li 6.8326 7.60645 3.94131
Li 6.75359 9.32258 6.25998
5
 Atoms. Timestep: 600
Li 9.17605 7.98144 5.28448
Li 7.7958 5.49222 4.98149
Li 14.492 4.56946 4.60109
Li 6.81342 7.66812 3.83679
Li 6.72271 9.28876 6.29615
5
 Atoms. Timestep: 610
Li 9.2165 8.0166 5.27921
Li 7.81555 5.42433 5.07637
Li 14.4869 4.55952 4.59277
Li 6.784 7.75153 3.7262
Li 6.69704 9.24802 6.32546
5
 Atoms. Timestep: 620
Li 9.24613 8.04914 5.27358
Li 7.83671 5.3644 5.17103
Li 14.4816 4.54966 4.58446
Li 6.75843 7.8366 3.62408
Li 6.67709 9.2002 6.34685
5
 Atoms. Timestep: 630
Li 9.2626 8.07795 5.26668
Li 7.85821 5.31671 5.2632
Li 14.4762 4.53987 4.57617
Li 6.73987 7.91991 3.53422
Li 6.66312 9.14555 6.35973
5
 Atoms. Timestep: 640
Li 9.26533 8.10268 5.25833
Li 7.88034 5.28108 5.3528
Li 14.4706 4.53015 4.56789
Li 6.7285 8.00164 3.45716
Li 6.65523 9.08445 6.36381
5
 Atoms. Timestep: 650
Li 9.25446 8.1232 5.24858
Li 7.90339 5.25663 5.44017
Li 14.4648 4.5205 4.55964
Li 6.72392 8.08233 3.39267
Li 6.65337 9.01734 6.35895
5
 Atoms. Timestep: 660
Li 9.23058 8.13936 5.2374
Li 7.92755 5.24267 5.52558
Li 14.4589 4.51091 4.5514
Li 6.72571 8.16236 3.34045
Li 6.65724 8.94469 6.34517
5
 Atoms. Timestep: 670
Li 9.1948 8.15088 5.22451
Li 7.95286 5.23881 5.60924
Li 14.4528 4.5014 4.54319
Li 6.73354 8.24186 3.30029
Li 6.66598 8.86706 6.32277
5
 Atoms. Timestep: 680
Li 9.14946 8.15714 5.20911
Li 7.97924 5.24491 5.69124
Li 14.4466 4.49196 4.53499
Li 6.74717 8.32079 3.27204
Li 6.67755 8.78521 6.29261
5
 Atoms. Timestep: 690
Li 9.09918 8.15707 5.18942
Li 8.00656 5.26111 5.77158
Li 14.4402 4.48258 4.52682
Li 6.76638 8.39895 3.25552
Li 6.6877 8.7003 6.25666
5
 Atoms. Timestep: 700
Li 9.05197 8.14912 5.16231
Li 8.03457 5.28773 5.85017
Li 14.4336 4.47326 4.51867
Li 6.79084 8.47603 3.25031
Li 6.68901 8.61387 6.21854
5
 Atoms. Timestep: 710
Li 9.01789 8.13181 5.12411
Li 8.06292 5.32517 5.92684
Li 14.4269 4.464 4.51054
Li 6.81996 8.55171 3.25547
Li 6.67232 8.52731 6.18305
5
 Atoms. Timestep: 720
Li 9.0031 8.10493 5.07352
Li 8.0912 5.37379 6.00133
Li 14.42 4.45481 4.50244
Li 6.85265 8.62577 3.26936
Li 6.63302 8.4407 6.15335
5
 Atoms. Timestep: 730
Li 9.00497 8.06978 5.01398
Li 8.11887 5.43376 6.07339
Li 14.413 4.44568 4.49436
Li 6.88725 8.69829 3.28973
Li 6.57591 8.3525 6.12855
5
 Atoms. Timestep: 740
Li 9.01633 8.02804 4.95164
Li 8.14527 5.50489 6.14278
Li 14.4058 4.43662 4.4863
Li 6.92157 8.76967 3.31406
Li 6.511 8.26079 6.10523
5
 Atoms. Timestep: 750
Li 9.03178 7.98088 4.89194
Li 8.16961 5.58642 6.20948
Li 14.3985 4.42762 4.47827
Li 6.95315 8.84068 3.34005
Li 6.44699 8.1644 6.08025
5
 Atoms. Timestep: 760
Li 9.04901 7.92944 4.8379
Li 8.19096 5.67662 6.2739
Li 14.391 4.41869 4.47027
Li 6.97987 8.91212 3.36628
Li 6.38918 8.06313 6.05165
5
 Atoms. Timestep: 770
Li 9.0674 7.87566 4.7896
Li 8.20847 5.77222 6.33732
Li 14.3833 4.40984 4.46229
Li 7.00072 8.98437 3.39258
Li 6.34009 7.9579 6.01821
5
 Atoms. Timestep: 780
Li 9.08665 7.82287 4.74443
Li 8.22194 5.86796 6.40227
Li 14.3755 4.40107 4.45434
Li 7.01609 9.05703 3.41996
Li 6.29985 7.85108 5.979
5
 Atoms. Timestep: 790
Li 9.1063 7.77479 4.69829
Li 8.23301 5.95701 6.47247
Li 14.3675 4.39237 4.44642
Li 7.02729 9.12898 3.45001
Li 6.26594 7.74685 5.9328
5
 Atoms. Timestep: 800
Li 9.1253 7.73354 4.64799
Li 8.24614 6.03337 6.55148
Li 14.3593 4.38376 4.43852
Li 7.03583 9.19877 3.4842
Li 6.23344 7.65056 5.87781
5
 Atoms. Timestep: 810
Li 9.14163 7.69829 4.59336
Li 8.26666 6.09542 6.64048
Li 14.3509 4.37524 4.43065
Li 7.04301 9.26504 3.52347
Li 6.19776 7.56601 5.81204
5
 Atoms. Timestep: 820
Li 9.15272 7.66645 4.53696
Li 8.29627 6.14726 6.73695
Li 14.3424 4.3668 4.4228
Li 7.04975 9.32667 3.56829
Li 6.15886 7.49283 5.735
5
 Atoms. Timestep: 830
Li 9.15637 7.63561 4.48211
Li 8.3319 6.19558 6.83572
Li 14.3337 4.35845 4.41498
Li 7.05666 9.3828 3.61868
Li 6.12137 7.42757 5.6485
5
 Atoms. Timestep: 840
Li 9.15121 7.60443 4.4314
Li 8.3691 6.24562 6.93148
Li 14.3248 4.3502 4.40719
Li 7.06416 9.4328 3.67442
Li 6.09072 7.36695 5.55551
5
 Atoms. Timestep: 850
Li 9.13651 7.57245 4.38645
Li 8.40471 6.29998 7.0204
Li 14.3157 4.34204 4.39942
Li 7.07251 9.47624 3.7351
Li 6.07053 7.30928 5.45863
5
 Atoms. Timestep: 860
Li 9.11197 7.53968 4.34817
Li 8.43711 6.35941 7.10028
Li 14.3065 4.33398 4.39167
Li 7.08188 9.51288 3.80021
Li 6.06255 7.25405 5.35966
5
 Atoms. Timestep: 870
Li 9.07749 7.50627 4.31709
Li 8.46575 6.42372 7.17003
Li 14.2971 4.32601 4.38395
Li 7.09232 9.54271 3.86916
Li 6.06738 7.20129 5.25977
5
 Atoms. Timestep: 880
Li 9.03314 7.47233 4.29351
Li 8.49056 6.49242 7.22918
Li 14.2875 4.31813 4.37625
Li 7.10382 9.56595 3.94131
Li 6.08501 7.15116 5.15974
5
 Atoms. Timestep: 890
Li 8.97936 7.43787 4.27759
Li 8.51169 6.56494 7.27759
Li 14.2777 4.31035 4.36858
Li 7.11628 9.58314 4.01604
Li 6.11498 7.1037 5.0602
5
 Atoms. Timestep: 900
Li 8.91747 7.40274 4.26924
Li 8.52933 6.64077 7.31519
Li 14.2677 4.30265 4.36093
Li 7.12951 9.59513 4.09275
Li 6.15595 7.05871 4.96189
5
 Atoms. Timestep: 910
Li 8.85132 7.3669 4.26778
Li 8.54367 6.71942 7.34194
Li 14.2576 4.29505 4.3533
Li 7.14318 9.60309 4.17097
Li 6.20419 7.01554 4.86601
5
 Atoms. Timestep: 920
Li 8.79078 7.331 4.27132
Li 8.55484 6.80051 7.35777
Li 14.2474 4.28752 4.3457
Li 7.15692 9.6082 4.25039
Li 6.25011 6.97276 4.77482
5
 Atoms. Timestep: 930
Li 8.75527 7.29743 4.27648
Li 8.56294 6.88369 7.36261
Li 14.2369 4.28008 4.33812
Li 7.17039 9.61103 4.33096
Li 6.27448 6.92777 4.69183
5
 Atoms. Timestep: 940
Li 8.76371 7.26955 4.28087
Li 8.56812 6.96866 7.35644
Li 14.2263 4.27272 4.33056
Li 7.18353 9.61059 4.4128
Li 6.25832 6.87848 4.61933
5
 Atoms. Timestep: 950
Li 8.81081 7.2482 4.28647
Li 8.57055 7.05519 7.33934
Li 14.2156 4.26544 4.32302
Li 7.19667 9.6043 4.49599
Li 6.2064 6.82686 4.55518
5
 Atoms. Timestep: 960
Li 8.87419 7.23172 4.29685
Li 8.57048 7.14315 7.31144
Li 14.2046 4.25826 4.3155
Li 7.21033 9.58931 4.58048
Li 6.14036 6.77756 4.49573
5
 Atoms. Timestep: 970
Li 8.93734 7.21883 4.31375
Li 8.56806 7.23255 7.27291
Li 14.1936 4.25116 4.30801
Li 7.22507 9.56354 4.66614
Li 6.07597 6.73393 4.43919
5
 Atoms. Timestep: 980
Li 8.99309 7.2091 4.33723
Li 8.5633 7.32354 7.22405
Li 14.1823 4.24416 4.30054
Li 7.24137 9.52579 4.75301
Li 6.01996 6.69741 4.38518
5
 Atoms. Timestep: 990
Li 9.03916 7.20243 4.36615
Li 8.55588 7.41654 7.16558
Li 14.1708 4.23727 4.29308
Li 7.25968 9.47532 4.84132
Li 5.97446 6.66844 4.33386
5
 Atoms. Timestep: 1000
Li 9.07552 7.19846 4.39789
Li 8.54503 7.51227 7.09934
Li 14.1592 4.23048 4.28565
Li 7.28035 9.41172 4.93158
Li 5.93991 6.64706 4.28554
5
 Atoms. Timestep: 1010
Li 9.10363 7.19609 4.4274
Li 8.52946 7.61167 7.02966
Li 14.1473 4.22381 4.27824
Li 7.30334 9.33523 5.02413
Li 5.91624 6.63319 4.24056
5
 Atoms. Timestep: 1020
Li 9.12631 7.19286 4.44689
Li 8.50863 7.71421 6.96614
Li 14.1353 4.21726 4.27086
Li 7.32651 9.24895 5.11683
Li 5.90326 6.62672 4.19928
5
 Atoms. Timestep: 1030
Li 9.1472 7.18519 4.44855
Li 8.48975 7.81 6.93038
Li 14.123 4.21083 4.26349
Li 7.3392 9.16645 5.19552
Li 5.90083 6.62752 4.16206
5
 Atoms. Timestep: 1040
Li 9.16784 7.17121 4.43183
Li 8.49855 7.8703 6.96125
Li 14.1106 4.20452 4.25615
Li 7.31428 9.11851 5.22162
Li 5.90878 6.63546 4.12915
5
 Atoms. Timestep: 1050
Li 9.18521 7.15381 4.40602
Li 8.54711 7.88624 7.06293
Li 14.0979 4.19834 4.24883
Li 7.24299 9.11134 5.18167
Li 5.92681 6.65027 4.10055
5
 Atoms. Timestep: 1060
Li 9.19485 7.13757 4.38119
Li 8.6119 7.88481 7.18747
Li 14.085 4.19229 4.24153
Li 7.15388 9.1139 5.11391
Li 5.9544 6.67143 4.0759
5
 Atoms. Timestep: 1070
Li 9.1942 7.12509 4.36212
Li 8.67751 7.88093 7.30678
Li 14.0718 4.18638 4.23426
Li 7.06579 9.11005 5.04239
Li 5.99066 6.69754 4.05445
5
 Atoms. Timestep: 1080
Li 9.1822 7.11726 4.35008
Li 8.74029 7.87753 7.41441
Li 14.0585 4.18061 4.227
Li 6.98495 9.0994 4.97382
Li 6.03407 6.7252 4.03468
5
 Atoms. Timestep: 1090
Li 9.15845 7.11423 4.34493
Li 8.80001 7.87462 7.51034
Li 14.0449 4.17497 4.21977
Li 6.91464 9.08881 4.91118
Li 6.08199 6.74736 4.01378
5
 Atoms. Timestep: 1100
Li 9.12288 7.11594 4.34616
Li 8.85709 7.87186 7.5958
Li 14.0311 4.16947 4.21257
Li 6.85801 9.08958 4.85783
Li 6.13093 6.75315 3.98765
5
 Atoms. Timestep: 1110
Li 9.07591 7.12227 4.35321
Li 8.91192 7.86898 7.67204
Li 14.0171 4.16411 4.20538
Li 6.81657 9.11087 4.81618
Li 6.17854 6.73377 3.95319
5
 Atoms. Timestep: 1120
Li 9.0188 7.13321 4.36566
Li 8.96483 7.86581 7.74013
Li 14.0028 4.15887 4.19822
Li 6.78829 9.15097 4.78476
Li 6.22527 6.69113 3.91122
